
                                 *****************
                                 * O   R   C   A *
                                 *****************

                                            #,                                       
                                            ###                                      
                                            ####                                     
                                            #####                                    
                                            ######                                   
                                           ########,                                 
                                     ,,################,,,,,                         
                               ,,#################################,,                 
                          ,,##########################################,,             
                       ,#########################################, ''#####,          
                    ,#############################################,,   '####,        
                  ,##################################################,,,,####,       
                ,###########''''           ''''###############################       
              ,#####''   ,,,,##########,,,,          '''####'''          '####       
            ,##' ,,,,###########################,,,                        '##       
           ' ,,###''''                  '''############,,,                           
         ,,##''                                '''############,,,,        ,,,,,,###''
      ,#''                                            '''#######################'''  
     '                                                          ''''####''''         
             ,#######,   #######,   ,#######,      ##                                
            ,#'     '#,  ##    ##  ,#'     '#,    #''#        ,####,    ,#,          
            ##       ##  ##   ,#'  ##            #'  '#       #'       ,# #          
            ##       ##  #######   ##           ,######,      #####,      #          
            '#,     ,#'  ##    ##  '#,     ,#' ,#      #,     #,   #      #          
             '#######'   ##     ##  '#######'  #'      '#     '####' #    #          



                #########################################################
                #                        -***-                          #
                #          Department of theory and spectroscopy        #
                #                                                       #
                #                      Frank Neese                      #
                #                                                       #
                #     Directorship, Architecture, Infrastructure        #
                #                    SHARK, DRIVERS                     #
                #        Core code/Algorithms in most modules           #
                #                                                       #
                #        Max Planck Institute fuer Kohlenforschung      #
                #                Kaiser Wilhelm Platz 1                 #
                #                 D-45470 Muelheim/Ruhr                 #
                #                      Germany                          #
                #                                                       #
                #                  All rights reserved                  #
                #                        -***-                          #
                #########################################################


                         Program Version 6.1.0  -  RELEASE   -
                                (GIT: $679e74b$)
                          ($2025-06-10 18:02:51 +0200$)


 With contributions from (in alphabetic order):
[Max-Planck-Institut fuer Kohlenforschung]                               
  Daniel Aravena         : Magnetic Suceptibility                        
  Michael Atanasov       : Ab Initio Ligand Field Theory (pilot matlab implementation)
  Alexander A. Auer      : GIAO ZORA, VPT2 properties, NMR spectrum      
  Ute Becker             : All parallelization in ORCA, NUMFREQ, NUMCALC 
  Giovanni Bistoni       : ED, misc. LED, open-shell LED, HFLD           
  Dmytro Bykov           : pre 5.0 version of the SCF Hessian            
  Marcos Casanova-Páez   : Triplet and SCS-CIS(D). UHF-(DLPNO)-IP/EA/STEOM-CCSD. UHF-CVS-IP/STEOM-CCSD   
  Vijay G. Chilkuri      : MRCI spin determinant printing, contributions to CSF-ICE 
  Pauline Colinet        : FMM embedding                                 
  Dipayan Datta          : RHF DLPNO-CCSD density                        
  Achintya Kumar Dutta   : EOM-CC, STEOM-CC                              
  Nicolas Foglia         : Exact transition moments, OPA infrastructure, MCD improvements    
  Dmitry Ganyushin       : Spin-Orbit,Spin-Spin,Magnetic field MRCI      
  Miquel Garcia-Rates    : C-PCM and meta-GGA Hessian, CCSD/C-PCM, Gaussian charge scheme 
  Tiago L. C. Gouveia    : GS-ROHF, GS-ROCIS                             
  Yang Guo               : DLPNO-NEVPT2, F12-NEVPT2, CIM, IAO-localization        
  Andreas Hansen         : Spin unrestricted coupled pair/coupled cluster methods 
  Ingolf Harden          : AUTO-CI MPn and infrastructure                
  Benjamin Helmich-Paris : MC-RPA, TRAH-(SCF,CASSCF), AVAS, COSX integrals, SCF dyn. polar., MC-PDFT, srDFT 
  Lee Huntington         : MR-EOM, pCC                                   
  Robert Izsak           : Overlap fitted RIJCOSX, COSX-SCS-MP3, EOM     
  Riya Kayal             : Wick's Theorem for AUTO-CI, AUTO-CI UHF-CCSDT 
  Emily Kempfer          : AUTO-CI RHF CISDT and CCSDT, approximate NEVPT4
  Christian Kollmar      : KDIIS, OOCD, Brueckner-CCSD(T), CCSD density, CASPT2, CASPT2-K, improved NEVPT2 
  Axel Koslowski         : Symmetry handling                             
  Simone Kossmann        : meta-GGA functionals, TD-DFT gradient, OOMP2, (MP2 Hessian; deprecated post 5.0) 
  Lucas Lang             : DCDCAS, Hyperfine gauge corrections, ICE-SOC+SSC
  Marvin Lechner         : AUTO-CI (C++ implementation), FIC-MRCC        
  Spencer Leger          : CASSCF response                               
  Dagmar Lenk            : GEPOL surface, SMD, ORCA-2-JSON               
  Dimitrios Liakos       : Extrapolation schemes; Compound Job, Property file
  Dimitrios Manganas     : Further ROCIS development; embedding schemes. LFT, Crystal Embedding 
  Dimitrios Pantazis     : SARC Basis sets                               
  Anastasios Papadopoulos: AUTO-CI, single reference methods and gradients 
  Taras Petrenko         : pre 6.0 DFT Hessian and TD-DFT gradient,  ECA, NRVS 
  Petra Pikulova         : Analytic Raman intensities                    
  Peter Pinski           : DLPNO-MP2, DLPNO-MP2 Gradient                 
  Shashank Vittal Rao    : ES-AILFT, MagRelax                            
  Christoph Reimann      : Effective Core Potentials                     
  Marius Retegan         : Local ZFS, SOC                                
  Christoph Riplinger    : Optimizer, TS searches, QM/MM, DLPNO-CCSD(T), (RO)-DLPNO pert. Triples 
  Michael Roemelt        : Original ROCIS implementation, recursive CI coupling coefficients
  Masaaki Saitow         : Open-shell DLPNO-CCSD energy and density      
  Barbara Sandhoefer     : DKH picture change effects                    
  Yorick L. A. Schmerwitz: GMF and freeze-and-release deltaSCF, NEB S-IDPP initial path                    
  Kantharuban Sivalingam : CASSCF convergence/infrastructure, NEVPT2, NEVPT3, NEVPT4(SD), FIC-MRCI and CEPA variants
  Bernardo de Souza      : ESD, SOC TD-DFT                               
  Georgi L. Stoychev     : AutoAux, RI-MP2 NMR, DLPNO-MP2 response, X2C  
  Van Anh Tran           : RI-MP2 g-tensors                              
  Willem Van den Heuvel  : Paramagnetic NMR                              
  Zikuan Wang            : NOTCH, Electric field optimization            
  Frank Wennmohs         : Technical directorship and infrastructure     
  Hang Xu                : AUTO-CI-Response properties                   
                                                                         
[FACCTs GmbH]                                                            
  Markus Bursch, Nicolas Foglia, Miquel Garcia-Rates, Ingolf Harden, Hagen Neugebauer, Anastasios Papadopoulos, 
  Christoph Riplinger, Bernardo de Souza, Georgi L. Stoychev                                                    
                                                                 
  APM, various basis sets, CI-OPT, improved COSX, DLPNO-Multilevel,           
  DOCKER, DRACO, updates on ESD, Fragmentator, GOAT, IRC, LR-CPCM, L-BFGS, MBIS, meta-GGA TD-DFT gradient, ML-optimized integration grids, 
  MM, NACMEs, nearIR, NEB, NEB-TS, NL-DFT gradient (VV10), 2- and 3-layer-ONIOM, interface openCOSMO-RS, QMMM,   
  Crystal-QMMM, RESP, rigid body optimization, SF, symmetry and pop. for TD-DFT, various functionals, SOLVATOR                                   
                                                                         
[Other institutions]                                                     
  V. Asgeirsson          : NEB                                           
  Christoph Bannwarth    : sTDA-DFT, sTD-DFT, PBEh-3c, B97-3c, D3        
  Giovanni Bistoni       : ETS/NOCV, ADLD/ADEX, COVALED                  
  Martin Brehm           : Molecular dynamics                            
  Ronald Cardenas        : ETS/NOCV                                      
  Martina Colucci        : COVALED                                       
  Sebastian Ehlert       : rSCAN, r2SCAN, r2SCAN-3c, D4, dhf basis sets  
  Marvin Friede          : D4 for Fr, Ra, Ac-Lr                          
  Lars Goerigk           : TD-DFT with DH, B97 family of functionals     
  Stefan Grimme          : VdW corrections, initial TS optimization, DFT functionals, gCP, sTDA/sTD-DF 
  Waldemar Hujo          : DFT-NL                                        
  H. Jonsson             : NEB                                           
  Holger Kruse           : gCP                                           
  Marcel Mueller         : wB97X-3c, vDZP basis set                      
  Hagen Neugebauer       : wr2SCAN, Native XTB                           
  Gianluca Regni         : ADLD/ADEX                                     
  Tobias Risthaus        : pre 6.0 range-separated hybrid DFT and stability analysis
  Lukas Wittmann         : regularized MP2, r2SCAN double-hybrids, wr2SCAN        
                                                                         
We gratefully acknowledge several colleagues who have allowed us to      
interface, adapt or use parts of their codes:                            
  Ed Valeev, F. Pavosevic, A. Kumar             : LibInt (2-el integral package), F12 methods 
  Garnet Chan, S. Sharma, J. Yang, R. Olivares  : DMRG                   
  Ulf Ekstrom                                   : XCFun DFT Library      
  Mihaly Kallay                                 : mrcc  (arbitrary order and MRCC methods)
  Frank Weinhold                                : gennbo (NPA and NBO analysis)           
  Simon Mueller                                 : openCOSMO-RS                            
  Christopher J. Cramer and Donald G. Truhlar   : smd solvation model                     
  S Lehtola, MJT Oliveira, MAL Marques          : LibXC Library                           
  Liviu Ungur et al                             : ANISO software                          


 Your calculation uses the libint2 library for the computation of 2-el integrals
 For citations please refer to: http://libint.valeyev.net

 Your ORCA version has been built with support for libXC version: 7.0.0
 For citations please refer to: https://libxc.gitlab.io

 This ORCA versions uses:
   CBLAS   interface :  Fast vector & matrix operations
   LAPACKE interface :  Fast linear algebra routines
   SCALAPACK package :  Parallel linear algebra routines
   Shared memory     :  Shared parallel matrices
   BLAS/LAPACK       :  OpenBLAS 0.3.29  USE64BITINT DYNAMIC_ARCH NO_AFFINITY Cooperlake SINGLE_THREADED
        Core in use  :  Cooperlake
   Copyright (c) 2011-2014, The OpenBLAS Project


  ***********************************
  * Starting time: Sat Jun 13 11:05:24 2026
  * Host name:     node182
  * Process ID:    476927
  * Working dir.:  /tmp/qrhuang/orcajob_428678-OVJS
  ***********************************

NOTE: MaxCore=6000 MB was set to SCF,MP2,MDCI,CIPSI,MRCI,RASCI and CIS
      => If you want to overwrite this, your respective input block should be placed after the MaxCore statement


***************************************
The coordinates will be read from file: CH2O.xyz
***************************************


XCFun DFT library Copyright 2009-2010 Ulf Ekstrom and contributors.
See http://admol.org/xcfun for more information.
This is free software; see the source code for copying conditions.
There is ABSOLUTELY NO WARRANTY; not even for MERCHANTABILITY or FITNESS FOR A PARTICULAR PURPOSE.
For details see the documentation.
Scientific users of this library should cite U. Ekstrom, L. Visscher, R. Bast, A. J. Thorvaldsen and K. Ruud;
J.Chem.Theor.Comp. 2010, DOI: 10.1021/ct100117s
XCFun Version 0.99 

================================================================================

----- Orbital basis set information -----
Your calculation utilizes the basis: def2-SVP
   F. Weigend and R. Ahlrichs, Phys. Chem. Chem. Phys. 7, 3297 (2005).

----- AuxJ basis set information -----
Your calculation utilizes the auxiliary basis: def2/J
   H-Rn: F. Weigend, Phys. Chem. Chem. Phys. 8, 1057 (2006).
   Fr-Lr: K. Eichkorn, F. Weigend, O. Treutler, R. Ahlrichs; Theor. Chem. Acc. 97, 119 (1997).

================================================================================
                                        WARNINGS
                       Please study these warnings very carefully!
================================================================================


WARNING: Geometry Optimization
  ===> : Switching off AutoStart
         For restart on a previous wavefunction, please use MOREAD

================================================================================
                                       INPUT FILE
================================================================================
NAME = /tmp/qrhuang/orcajob_428678-OVJS/CH2O.inp
|  1> ! CAM-B3LYP def2-SVP RIJCOSX def2/J TightSCF defgrid2 NoUseSym Normalprint OPT FREQ
|  2> 
|  3> # Parallel Execution 
|  4> %pal
|  5>    nprocs 4
|  6> end
|  7> 
|  8> # Global Memory Settings in units of MB per processing core
|  9> # Please Calculate the Maximum Memory for EACH core
| 10> %maxcore 6000 
| 11> 
| 12> # Atomic coordinates
| 13> # The format should be 
| 14> # *xyzfile "charge" "multiplicity" geom.xyz
| 15> # Please check the charge and multiplicity
| 16> *xyzfile 0 1 CH2O.xyz
| 17> 
| 18> # Written by QRHuang at 2020/3/6
| 19> # Currently This Input is Experimental; 
| 20> # I'm not sure if this input produce high-quality result or not.
| 21> 
| 22> 
| 23>                          ****END OF INPUT****
================================================================================

                       *****************************
                       * Geometry Optimization Run *
                       *****************************

Geometry optimization settings:
Update method            Update   .... BFGS
Choice of coordinates    CoordSys .... (2022) Redundant Internals
Initial Hessian          InHess   .... Almloef's Model
Max. no of cycles        MaxIter  .... 50

Convergence Tolerances:
Energy Change            TolE     ....  5.0000e-06 Eh
Max. Gradient            TolMAXG  ....  3.0000e-04 Eh/bohr
RMS Gradient             TolRMSG  ....  1.0000e-04 Eh/bohr
Max. Displacement        TolMAXD  ....  4.0000e-03 bohr
RMS Displacement         TolRMSD  ....  2.0000e-03 bohr
Strict Convergence                .... False

------------------------------------------------------------------------------
                        ORCA OPTIMIZATION COORDINATE SETUP
------------------------------------------------------------------------------

The optimization will be done in redundant internal coordinates (2022)
Making redundant internal coordinates   ...  (2022 redundants) done
Evaluating the initial hessian          ...  (Almloef) done
Evaluating the coordinates              ...  done
Calculating the B-matrix                .... done
Calculating the G-matrix                .... done
The number of degrees of freedom        ....    7

    -----------------------------------------------------------------
                    Redundant Internal Coordinates


    -----------------------------------------------------------------
         Definition                    Initial Value    Approx d2E/dq
    -----------------------------------------------------------------
      1. B(C   1,H   0)                  1.1186         0.324231   
      2. B(H   2,C   1)                  1.1186         0.324231   
      3. B(O   3,C   1)                  1.1957         1.142550   
      4. A(H   0,C   1,O   3)          122.4312         0.382522   
      5. A(H   2,C   1,O   3)          122.4312         0.382522   
      6. A(H   0,C   1,H   2)          115.1376         0.281477   
      7. I(H   0,O   3,H   2,C   1)     -0.0001         0.023898   
    -----------------------------------------------------------------

Number of atoms                         .... 4
Number of degrees of freedom            .... 7


         *************************************************************
         *                GEOMETRY OPTIMIZATION CYCLE   1            *
         *************************************************************
---------------------------------
CARTESIAN COORDINATES (ANGSTROEM)
---------------------------------
  H      1.077730   -0.143867    1.058194
  C      0.583796    0.014749    0.067209
  H      1.281351    0.203510   -0.786587
  O     -0.603677   -0.015292   -0.069517

----------------------------
CARTESIAN COORDINATES (A.U.)
----------------------------
  NO LB      ZA    FRAG     MASS         X           Y           Z
   0 H     1.0000    0     1.008    2.036615   -0.271869    1.999697
   1 C     6.0000    0    12.011    1.103215    0.027872    0.127007
   2 H     1.0000    0     1.008    2.421402    0.384578   -1.486434
   3 O     8.0000    0    15.999   -1.140784   -0.028898   -0.131368

--------------------------------
INTERNAL COORDINATES (ANGSTROEM)
--------------------------------
 H      0   0   0     0.000000000000     0.00000000     0.00000000
 C      1   0   0     1.118562068925     0.00000000     0.00000000
 H      2   1   0     1.118562158649   115.13758172     0.00000000
 O      2   1   3     1.195695858689   122.43119879   180.00013964

---------------------------
INTERNAL COORDINATES (A.U.)
---------------------------
 H      0   0   0     0.000000000000     0.00000000     0.00000000
 C      1   0   0     2.113775974060     0.00000000     0.00000000
 H      2   1   0     2.113776143615   115.13758172     0.00000000
 O      2   1   3     2.259537712386   122.43119879   180.00013964

---------------------
BASIS SET INFORMATION
---------------------
There are 3 groups of distinct atoms

 Group   1 Type H   : 4s1p contracted to 2s1p pattern {31/1}
 Group   2 Type C   : 7s4p1d contracted to 3s2p1d pattern {511/31/1}
 Group   3 Type O   : 7s4p1d contracted to 3s2p1d pattern {511/31/1}

Atom   0H    basis set group =>   1
Atom   1C    basis set group =>   2
Atom   2H    basis set group =>   1
Atom   3O    basis set group =>   3
---------------------------------
AUXILIARY/J BASIS SET INFORMATION
---------------------------------
There are 3 groups of distinct atoms

 Group   1 Type H   : 5s2p1d contracted to 3s1p1d pattern {311/2/1}
 Group   2 Type C   : 12s5p4d2f1g contracted to 6s4p3d1f1g pattern {711111/2111/211/2/1}
 Group   3 Type O   : 12s5p4d2f1g contracted to 6s4p3d1f1g pattern {711111/2111/211/2/1}

Atom   0H    basis set group =>   1
Atom   1C    basis set group =>   2
Atom   2H    basis set group =>   1
Atom   3O    basis set group =>   3


           ************************************************************
           *        Program running with 4 parallel MPI-processes     *
           *              working on a common directory               *
           ************************************************************
------------------------------------------------------------------------------
                             ORCA STARTUP CALCULATIONS
                           -- RI-GTO INTEGRALS CHOSEN --
------------------------------------------------------------------------------
------------------------------------------------------------------------------
                   ___                                                        
                  /   \      - P O W E R E D   B Y -                         
                 /     \                                                     
                 |  |  |   _    _      __       _____    __    __             
                 |  |  |  | |  | |    /  \     |  _  \  |  |  /  |          
                  \  \/   | |  | |   /    \    | | | |  |  | /  /          
                 / \  \   | |__| |  /  /\  \   | |_| |  |  |/  /          
                |  |  |   |  __  | /  /__\  \  |    /   |      \           
                |  |  |   | |  | | |   __   |  |    \   |  |\   \          
                \     /   | |  | | |  |  |  |  | |\  \  |  | \   \       
                 \___/    |_|  |_| |__|  |__|  |_| \__\ |__|  \__/        
                                                                              
                      - O R C A' S   B I G   F R I E N D -                    
                                      &                                       
                       - I N T E G R A L  F E E D E R -                       
                                                                              
 v1 FN, 2020, v2 2021, v3 2022-2024                                           
------------------------------------------------------------------------------


----------------------
SHARK INTEGRAL PACKAGE
----------------------

Number of atoms                             ...      4
Number of basis functions                   ...     38
Number of shells                            ...     18
Maximum angular momentum                    ...      2
Integral batch strategy                     ... SHARK/LIBINT Hybrid
RI-J (if used) integral strategy            ... SPLIT-RIJ (Revised 2003 algorithm where possible)
Printlevel                                  ...      1
Contraction scheme used                     ... SEGMENTED contraction
Prescreening option                         ... SCHWARTZ
   Thresh                                   ... 2.500e-11
   Tcut                                     ... 2.500e-12
   Tpresel                                  ... 2.500e-12 
Coulomb Range Separation                    ... NOT USED
Exchange Range Separation                   ... Long Range
   Mu parameter                             ... 3.300e-01
   Scaling (regular/separated)              ... 1.900e-01 4.600e-01
Robust (split-)RI terms used:
  metric    (central integrals)             ... YES
  density   (r.h.s.  integrals)             ... YES
  potential (l.h.s.  integrals)             ... YES
Multipole approximations                    ... NOT USED
Finite Nucleus Model                        ... NOT USED
CABS basis                                  ... NOT available
Auxiliary Coulomb fitting basis             ... AVAILABLE
   # of basis functions in Aux-J            ...    120
   # of shells in Aux-J                     ...     40
   Maximum angular momentum in Aux-J        ...      4
Auxiliary J/K fitting basis                 ... NOT available
Auxiliary Correlation fitting basis         ... NOT available
Auxiliary 'external' fitting basis          ... NOT available

Checking pre-screening integrals            ... done (  0.0 sec) Dimension = 18
   => SHARK Basis and OBASIS are compatible. Storing Pre-screening
Shell pair information
Shell pair cut-off parameter TPreSel        ...   2.5e-12
Total number of shell pairs                 ...       171
Shell pairs after pre-screening             ...       171
Total number of primitive shell pairs       ...       627
Primitive shell pairs kept                  ...       577
          la=0 lb=0:     55 shell pairs
          la=1 lb=0:     60 shell pairs
          la=1 lb=1:     21 shell pairs
          la=2 lb=0:     20 shell pairs
          la=2 lb=1:     12 shell pairs
          la=2 lb=2:      3 shell pairs

Checking whether 4 symmetric matrices of dimension 38 fit in memory
:Max Core in MB      =   6000.00
 MB in use           =      3.39
 MB left             =   5996.61
 MB needed           =      0.02
 Data fit in memory  = YES
Calculating RI/J V-Matrix + Cholesky decomp.... done (  0.0 sec)
Calculating Nuclear repulsion               ... done (  0.0 sec) ENN=     31.374224607529 Eh

Diagonalization of the overlap matrix:
Smallest eigenvalue                        ... 1.826e-02
Time for diagonalization                   ...    0.003 sec
Threshold for overlap eigenvalues          ... 1.000e-07
Number of eigenvalues below threshold      ... 0
Time for construction of square roots      ...    0.000 sec
Total time needed                          ...    0.003 sec

-------------------
DFT GRID GENERATION
-------------------

General Integration Accuracy     IntAcc      ... 4.388
Radial Grid Type                 RadialGrid  ... OptM3 with GC (2021)
Angular Grid (max. ang.)         AngularGrid ... 4 (Lebedev-302)
Angular grid pruning method      GridPruning ... 4 (adaptive)
Weight generation scheme         WeightScheme... mBecke (2022)
Basis function cutoff            BFCut       ... 1.0000e-11
Integration weight cutoff        WCut        ... 1.0000e-14
Partially contracted basis set               ... off
Rotationally invariant grid construction     ... off
Angular grids for H and He will be reduced by one unit

Total number of grid points                  ...    18830
Total number of batches                      ...      296
Average number of points per batch           ...       63
Average number of grid points per atom       ...     4708

--------------------
COSX GRID GENERATION
--------------------

GRIDX 1
-------
General Integration Accuracy     IntAcc      ... 3.816
Radial Grid Type                 RadialGrid  ... OptM3 with GC (2021)
Angular Grid (max. ang.)         AngularGrid ... 1 (Lebedev-50)
Angular grid pruning method      GridPruning ... 4 (adaptive)
Weight generation scheme         WeightScheme... mBecke (2022)
Basis function cutoff            BFCut       ... 1.0000e-11
Integration weight cutoff        WCut        ... 1.0000e-14
Partially contracted basis set               ... on
Rotationally invariant grid construction     ... off
Angular grids for H and He will be reduced by one unit

Total number of grid points                  ...     2424
Total number of batches                      ...       22
Average number of points per batch           ...      110
Average number of grid points per atom       ...      606
UseSFitting                                  ... on

GRIDX 2
-------
General Integration Accuracy     IntAcc      ... 4.020
Radial Grid Type                 RadialGrid  ... OptM3 with GC (2021)
Angular Grid (max. ang.)         AngularGrid ... 2 (Lebedev-110)
Angular grid pruning method      GridPruning ... 4 (adaptive)
Weight generation scheme         WeightScheme... mBecke (2022)
Basis function cutoff            BFCut       ... 1.0000e-11
Integration weight cutoff        WCut        ... 1.0000e-14
Partially contracted basis set               ... on
Rotationally invariant grid construction     ... off
Angular grids for H and He will be reduced by one unit

Total number of grid points                  ...     5371
Total number of batches                      ...       43
Average number of points per batch           ...      124
Average number of grid points per atom       ...     1343
UseSFitting                                  ... on

GRIDX 3
-------
General Integration Accuracy     IntAcc      ... 4.338
Radial Grid Type                 RadialGrid  ... OptM3 with GC (2021)
Angular Grid (max. ang.)         AngularGrid ... 3 (Lebedev-194)
Angular grid pruning method      GridPruning ... 4 (adaptive)
Weight generation scheme         WeightScheme... mBecke (2022)
Basis function cutoff            BFCut       ... 1.0000e-11
Integration weight cutoff        WCut        ... 1.0000e-14
Partially contracted basis set               ... on
Rotationally invariant grid construction     ... off
Angular grids for H and He will be reduced by one unit

Total number of grid points                  ...    11905
Total number of batches                      ...       94
Average number of points per batch           ...      126
Average number of grid points per atom       ...     2976
UseSFitting                                  ... on
Grids setup in   0.1 sec
Initializing property integral containers    ... done (  0.0 sec)

SHARK setup successfully completed in   0.2 seconds

Maximum memory used throughout the entire STARTUP-calculation: 8.8 MB


           ************************************************************
           *        Program running with 4 parallel MPI-processes     *
           *              working on a common directory               *
           ************************************************************
-------------------------------------------------------------------------------
                                 ORCA GUESS
                   Start orbitals & Density for SCF / CASSCF
-------------------------------------------------------------------------------

------------
SCF SETTINGS
------------
Hamiltonian:
 Density Functional     Method          .... DFT(GTOs)
 Exchange Functional    Exchange        .... WB88
 Correlation Functional Correlation     .... LYP
 LDA part of GGA corr.  LDAOpt          .... VWN-5
 Gradients option       PostSCFGGA      .... off
 Hybrid DFT is turned on
   Fraction HF Exchange ScalHFX         ....  0.190000
   Scaling of DF-GGA-X  ScalDFX         ....  0.350000
   Scaling of DF-GGA-C  ScalDFC         ....  0.810000
   Scaling of DF-LDA-C  ScalLDAC        ....  1.000000
   Perturbative correction              ....  0.000000
 Long-range corrected/Screened/Range-Separated Hybrid DFT is turned on
   Amount of maximum screened exact exchange              ....  0.460000
   Range separation parameter mu (erf(mu*r12)/r12)        ....  0.330000
 RI-approximation to the Coulomb term is turned on
   Number of AuxJ basis functions       .... 120
   RIJ-COSX (HFX calculated with COS-X)).... on


General Settings:
 Integral files         IntName         .... /tmp/qrhuang/orcajob_428678-OVJS/CH2O
 Hartree-Fock type      HFTyp           .... RHF
 Total Charge           Charge          ....    0
 Multiplicity           Mult            ....    1
 Number of Electrons    NEL             ....   16
 Basis Dimension        Dim             ....   38
 Nuclear Repulsion      ENuc            ....     31.3742246075 Eh

Convergence Acceleration:
 AO-DIIS                CNVDIIS         .... on
   Start iteration      DIISMaxIt       ....    12
   Startup error        DIISStart       ....  0.200000
   # of expansion vecs  DIISMaxEq       ....     5
   Bias factor          DIISBfac        ....   1.050
   Max. coefficient     DIISMaxC        ....  10.000
 MO-DIIS                CNVKDIIS        .... off
 Trust-Rad. Augm. Hess. CNVTRAH         .... auto
   Auto Start mean grad. ratio tolernc. ....  1.125000
   Auto Start start iteration           ....    50
   Auto Start num. interpolation iter.  ....    10
   Max. Number of Micro iterations      ....    24
   Max. Number of Macro iterations      .... Maxiter - #DIIS iter
   Number of Davidson start vectors     ....     2
   Converg. threshold    (grad. norm)   ....   1.000e-05
   Grad. Scal. Fac. for Micro threshold ....   0.100
   Minimum threshold for Micro iter.    ....   1.000e-02
   NR start threshold (gradient norm)   ....   1.000e-04
   Initial trust radius                 ....   0.400
   Minimum AH scaling param. (alpha)    ....   1.000
   Maximum AH scaling param. (alpha)    .... 1000.000
   Quad. conv. algorithm                .... NR
   White noise on init. David. guess    .... on
   Maximum white noise                  ....   0.010
   Pseudo random numbers                .... off
   Inactive MOs                         .... canonical
   Orbital update algorithm             .... Taylor
   Preconditioner                       .... Diag
   Full preconditioner red. dimension   ....   250
 SOSCF                 CNVSOSCF           .... on
   Start iteration     SOSCFMaxIt         ....   150
   Startup grad/error  SOSCFStart         ....  0.003300
   Hessian update      SOSCFHessUp        .... L-BFGS
   Autom. constraints  SOSCFAutoConstrain .... off
 Level Shifting         CNVShift        .... on
   Level shift para.    LevelShift      ....    0.2500
   Turn off err/grad.   ShiftErr        ....    0.0010
 Zerner damping         CNVZerner       .... off
 Static damping         CNVDamp         .... on
   Fraction old density DampFac         ....    0.7000
   Max. Damping (<1)    DampMax         ....    0.9800
   Min. Damping (>=0)   DampMin         ....    0.0000
   Turn off err/grad.   DampErr         ....    0.1000

SCF Procedure:
 Maximum # iterations   MaxIter         ....   125
 SCF integral mode      SCFMode         .... Direct
   Integral package                     .... SHARK and LIBINT hybrid scheme
 Reset frequency        DirectResetFreq ....    20
 Integral Threshold     Thresh          ....  2.500e-11 Eh
 Primitive CutOff       TCut            ....  2.500e-12 Eh

Convergence Tolerance:
 Convergence Check Mode ConvCheckMode   .... Total+1el-Energy
 Convergence forced     ConvForced      .... 0
 Energy Change          TolE            ....  1.000e-08 Eh
 1-El. energy change                    ....  1.000e-05 Eh
 Orbital Gradient       TolG            ....  1.000e-05
 Orbital Rotation angle TolX            ....  1.000e-05
 DIIS Error             TolErr          ....  5.000e-07

------------------------------
INITIAL GUESS: MODEL POTENTIAL
------------------------------
Loading Hartree-Fock densities                     ... done
Calculating cut-offs                               ... done
Initializing the effective Hamiltonian             ... done
Setting up the integral package (SHARK)            ... done
Starting the Coulomb interaction                   ... done (   0.0 sec)
Making the grid                                    ... done (   0.0 sec)
Mapping shells                                     ... done
Starting the XC term evaluation                    ... done (   0.0 sec)
  promolecular density results
     # of electrons  =     15.999086398
     EX              =    -13.802765091
     EC              =     -0.510520815
     EX+EC           =    -14.313285906
Transforming the Hamiltonian                       ... done (   0.0 sec)
Diagonalizing the Hamiltonian                      ... done (   0.0 sec)
Back transforming the eigenvectors                 ... done (   0.0 sec)
Now organizing SCF variables                       ... done
                      ------------------
                      INITIAL GUESS DONE (   0.0 sec)
                      ------------------
             **** ENERGY FILE WAS UPDATED (/tmp/qrhuang/orcajob_428678-OVJS/CH2O.en.tmp) ****
Finished Guess after   0.2 sec
Maximum memory used throughout the entire GUESS-calculation: 5.6 MB


           ************************************************************
           *        Program running with 4 parallel MPI-processes     *
           *              working on a common directory               *
           ************************************************************

-------------------------------------------------------------------------------------------
                                      ORCA LEAN-SCF
                              memory conserving SCF solver
-------------------------------------------------------------------------------------------

----------------------------------------D-I-I-S--------------------------------------------
Iteration    Energy (Eh)           Delta-E    RMSDP     MaxDP     DIISErr   Damp  Time(sec)
-------------------------------------------------------------------------------------------
               ***  Starting incremental Fock matrix formation  ***
    1    -114.3013631606548728     0.00e+00  1.34e-02  7.46e-02  2.38e-01  0.700   0.1
    2    -114.3314287719892235    -3.01e-02  8.35e-03  4.65e-02  1.11e-01  0.700   0.1
                               ***Turning on AO-DIIS***
    3    -114.3420058910811150    -1.06e-02  3.40e-03  1.50e-02  3.59e-02  0.700   0.1
    4    -114.3488098666958734    -6.80e-03  6.15e-03  2.25e-02  1.84e-02  0.000   0.1
    5    -114.3645882792216781    -1.58e-02  1.05e-03  4.52e-03  5.22e-03  0.000   0.1
                              *** Initializing SOSCF ***
---------------------------------------S-O-S-C-F--------------------------------------
Iteration    Energy (Eh)           Delta-E    RMSDP     MaxDP     MaxGrad    Time(sec)
--------------------------------------------------------------------------------------
    6    -114.3646353022920863    -4.70e-05  3.76e-04  1.78e-03  1.05e-03     0.1
               *** Restarting incremental Fock matrix formation ***
    7    -114.3646431291463585    -7.83e-06  2.18e-04  1.10e-03  2.67e-04     0.1
    8    -114.3646438450913791    -7.16e-07  1.17e-04  5.72e-04  8.55e-05     0.1
    9    -114.3646438663803195    -2.13e-08  3.84e-05  1.60e-04  1.16e-04     0.1
   10    -114.3646439299076150    -6.35e-08  1.15e-05  4.98e-05  2.14e-05     0.1
   11    -114.3646439322622683    -2.35e-09  4.20e-06  2.41e-05  1.08e-05     0.1
                 **** Energy Check signals convergence ****

               *****************************************************
               *                     SUCCESS                       *
               *           SCF CONVERGED AFTER  11 CYCLES          *
               *****************************************************

Recomputing exchange energy using gridx3       ... done (    0.079 sec)
Old exchange energy                            :     -3.932071953 Eh
New exchange energy                            :     -3.932074741 Eh
Exchange energy change after final integration :     -0.000002788 Eh
Total energy after final integration           :   -114.364646721 Eh
             **** ENERGY FILE WAS UPDATED (/tmp/qrhuang/orcajob_428678-OVJS/CH2O.en.tmp) ****

----------------
TOTAL SCF ENERGY
----------------

Total Energy       :       -114.36464672065075 Eh           -3112.02025 eV

Components:
Nuclear Repulsion  :         31.37422460752943 Eh             853.73605 eV
Electronic Energy  :       -145.73886854034572 Eh           -3965.75623 eV
One Electron Energy:       -217.51802668102292 Eh           -5918.96642 eV
Two Electron Energy:         71.77915814067720 Eh            1953.21019 eV

Virial components:
Potential Energy   :       -227.78750415531167 Eh           -6198.41311 eV
Kinetic Energy     :        113.42285743466091 Eh            3086.39286 eV
Virial Ratio       :          2.00830334649726

DFT components:
N(Alpha)           :        7.999999154357 electrons
N(Beta)            :        7.999999154357 electrons
N(Total)           :       15.999998308715 electrons
E(XC)              :      -10.710678284458 Eh       

---------------
SCF CONVERGENCE
---------------

  Last Energy change         ...    2.3547e-09  Tolerance :   1.0000e-08
  Last MAX-Density change    ...    2.4125e-05  Tolerance :   1.0000e-07
  Last RMS-Density change    ...    4.2014e-06  Tolerance :   5.0000e-09
  Last DIIS Error            ...    1.0530e-03  Tolerance :   5.0000e-07
  Last Orbital Gradient      ...    1.0758e-05  Tolerance :   1.0000e-05
  Last Orbital Rotation      ...    9.8417e-06  Tolerance :   1.0000e-05


----------------
ORBITAL ENERGIES
----------------

  NO   OCC          E(Eh)            E(eV) 
   0   2.0000     -19.225256      -523.1458 
   1   2.0000     -10.362497      -281.9779 
   2   2.0000      -1.134033       -30.8586 
   3   2.0000      -0.700139       -19.0517 
   4   2.0000      -0.567264       -15.4360 
   5   2.0000      -0.520769       -14.1709 
   6   2.0000      -0.471993       -12.8436 
   7   2.0000      -0.333162        -9.0658 
   8   0.0000       0.014240         0.3875 
   9   0.0000       0.114021         3.1027 
  10   0.0000       0.180131         4.9016 
  11   0.0000       0.246691         6.7128 
  12   0.0000       0.497815        13.5462 
  13   0.0000       0.508381        13.8338 
  14   0.0000       0.603254        16.4154 
  15   0.0000       0.649501        17.6738 
  16   0.0000       0.669175        18.2092 
  17   0.0000       0.733188        19.9511 
  18   0.0000       0.947231        25.7755 
*Only the first 10 virtual orbitals were printed.

                    ********************************
                    * MULLIKEN POPULATION ANALYSIS *
                    ********************************

-----------------------
MULLIKEN ATOMIC CHARGES
-----------------------
   0 H :    0.020804
   1 C :    0.155623
   2 H :    0.020866
   3 O :   -0.197293
Sum of atomic charges:   -0.0000000

--------------------------------
MULLIKEN REDUCED ORBITAL CHARGES
--------------------------------
  0 H s       :     0.960242  s :     0.960242
      pz      :     0.012922  p :     0.018954
      px      :     0.003854
      py      :     0.002178

  1 C s       :     3.164064  s :     3.164064
      pz      :     0.964436  p :     2.601777
      px      :     0.890781
      py      :     0.746560
      dz2     :     0.009314  d :     0.078536
      dxz     :     0.040279
      dyz     :     0.000453
      dx2y2   :     0.012441
      dxy     :     0.016049

  2 H s       :     0.960181  s :     0.960181
      pz      :     0.010532  p :     0.018953
      px      :     0.006144
      py      :     0.002277

  3 O s       :     3.771772  s :     3.771772
      pz      :     1.803476  p :     4.406071
      px      :     1.346665
      py      :     1.255930
      dz2     :     0.002244  d :     0.019450
      dxz     :     0.004580
      dyz     :     0.000094
      dx2y2   :     0.006090
      dxy     :     0.006441


------------------------
MULLIKEN OVERLAP CHARGES
------------------------
B(  0-H ,  1-C ) :   0.7236 B(  0-H ,  2-H ) :  -0.2047 B(  0-H ,  3-O ) :  -0.0962 
B(  1-C ,  2-H ) :   0.7235 B(  1-C ,  3-O ) :   1.3004 B(  2-H ,  3-O ) :  -0.0963 



                     *******************************
                     * LOEWDIN POPULATION ANALYSIS *
                     *******************************

----------------------
LOEWDIN ATOMIC CHARGES
----------------------
   0 H :   -0.007530
   1 C :    0.126849
   2 H :   -0.007525
   3 O :   -0.111794

-------------------------------
LOEWDIN REDUCED ORBITAL CHARGES
-------------------------------
  0 H s       :     0.944683  s :     0.944683
      pz      :     0.040442  p :     0.062847
      px      :     0.014217
      py      :     0.008188

  1 C s       :     2.920380  s :     2.920380
      pz      :     1.034565  p :     2.769153
      px      :     0.993529
      py      :     0.741059
      dz2     :     0.022208  d :     0.183618
      dxz     :     0.099901
      dyz     :     0.000867
      dx2y2   :     0.032524
      dxy     :     0.028118

  2 H s       :     0.944675  s :     0.944675
      pz      :     0.032577  p :     0.062850
      px      :     0.021758
      py      :     0.008514

  3 O s       :     3.550766  s :     3.550766
      pz      :     1.793844  p :     4.528611
      px      :     1.492687
      py      :     1.242080
      dz2     :     0.004416  d :     0.032417
      dxz     :     0.007424
      dyz     :     0.000109
      dx2y2   :     0.012878
      dxy     :     0.007590


---------------------------------
LOEWDIN BOND ORDERS (THRESH 0.050000)
---------------------------------
B(  0-H ,  1-C ) :   0.9572 B(  0-H ,  3-O ) :   0.0927 B(  1-C ,  2-H ) :   0.9572 
B(  1-C ,  3-O ) :   2.4184 B(  2-H ,  3-O ) :   0.0927 

------------------------------------------
LOEWDIN REDUCED ORBITAL POPULATIONS PER MO
-------------------------------------------
THRESHOLD FOR PRINTING IS 0.1%%
                      0         1         2         3         4         5   
                 -19.22526 -10.36250  -1.13403  -0.70014  -0.56726  -0.52077
                   2.00000   2.00000   2.00000   2.00000   2.00000   2.00000
                  --------  --------  --------  --------  --------  --------
 0 H  s               0.0       0.0       1.6      17.6      13.5       3.1
 0 H  pz              0.0       0.0       0.1       1.4       0.3       0.1
 0 H  px              0.0       0.0       0.1       0.1       0.4       0.1
 1 C  s               0.0      99.4      18.6      26.2       0.0       1.8
 1 C  pz              0.0       0.0       0.2       0.2      45.4       0.2
 1 C  px              0.1       0.0      14.7      18.4       0.6      15.8
 1 C  py              0.0       0.0       0.0       0.0       1.6       0.0
 1 C  dz2             0.0       0.0       0.5       0.3       0.0       0.1
 1 C  dx2y2           0.0       0.0       1.4       0.1       0.0       0.0
 2 H  s               0.0       0.0       1.6      17.6      13.5       3.1
 2 H  pz              0.0       0.0       0.1       1.2       0.2       0.2
 2 H  px              0.0       0.0       0.1       0.3       0.6       0.0
 3 O  s              99.9       0.0      54.1       9.0       0.0      14.6
 3 O  pz              0.0       0.0       0.1       0.1      22.6       0.8
 3 O  px              0.0       0.3       6.5       7.2       0.3      59.4
 3 O  py              0.0       0.0       0.0       0.0       0.8       0.0
 3 O  dz2             0.0       0.0       0.1       0.0       0.0       0.1
 3 O  dxz             0.0       0.0       0.0       0.0       0.3       0.0
 3 O  dx2y2           0.0       0.0       0.2       0.1       0.0       0.4

                      6         7         8         9        10        11   
                  -0.47199  -0.33316   0.01424   0.11402   0.18013   0.24669
                   2.00000   2.00000   0.00000   0.00000   0.00000   0.00000
                  --------  --------  --------  --------  --------  --------
 0 H  s               0.0      11.4       0.0      30.8      32.3       0.6
 0 H  pz              0.0       0.0       0.1       6.9       3.2       0.3
 0 H  px              0.0       0.0       0.0       0.3       2.9       3.5
 0 H  py              0.4       0.0       1.9       0.2       0.1       0.0
 1 C  s               0.0       0.0       0.0      15.2       0.0      18.7
 1 C  pz              1.2       4.5       1.9       0.1      18.4       0.6
 1 C  px              0.1       0.1       0.1       5.5       0.2      49.0
 1 C  py             35.3       0.2      55.5       0.0       0.7       0.0
 1 C  dz2             0.0       0.2       0.0       0.8       0.0       1.3
 1 C  dxz             0.0       4.8       0.1       0.0       0.1       0.3
 1 C  dyz             0.0       0.0       0.0       0.2       0.0       0.0
 1 C  dx2y2           0.0       0.1       0.0       0.5       0.0       6.6
 1 C  dxy             1.2       0.2       1.9       0.0       0.0       0.0
 2 H  s               0.0      11.4       0.0      30.8      32.3       0.6
 2 H  pz              0.0       0.0       0.1       5.9       1.9       0.9
 2 H  px              0.0       0.0       0.0       1.3       4.2       2.9
 2 H  py              0.4       0.0       1.9       0.2       0.1       0.0
 3 O  s               0.0       0.0       0.0       0.5       0.0      12.4
 3 O  pz              2.0      64.2       1.2       0.0       2.7       0.0
 3 O  px              0.1       0.8       0.1       0.7       0.0       2.1
 3 O  py             59.0       2.3      34.8       0.0       0.1       0.0
 3 O  dxz             0.0       0.0       0.0       0.0       0.6       0.0
 3 O  dxy             0.4       0.0       0.5       0.0       0.0       0.0

                     12        13        14        15        16        17   
                   0.49782   0.50838   0.60325   0.64950   0.66917   0.73319
                   0.00000   0.00000   0.00000   0.00000   0.00000   0.00000
                  --------  --------  --------  --------  --------  --------
 0 H  s              18.2       0.0      13.8      19.2      18.6       0.8
 0 H  pz              1.3       0.0       0.1       2.4       2.4       0.4
 0 H  px              1.4       0.0       3.5       0.8       0.3       0.0
 0 H  py              0.1       0.2       0.0       0.1       0.1       0.0
 1 C  s              35.6       0.0       0.0      47.2       0.0       6.6
 1 C  pz              0.1       3.2      41.5       0.0      48.8       0.7
 1 C  px             11.0       0.2       0.5       1.8       0.6      54.2
 1 C  py              0.0      94.7       1.5       0.0       1.7       0.0
 1 C  dz2             7.5       0.0       0.2       0.6       0.1       1.8
 1 C  dxz             0.2       0.0       6.1       0.0       3.2       0.3
 1 C  dyz             1.3       0.0       0.0       0.2       0.0       0.0
 1 C  dx2y2           1.2       0.0       0.1       1.2       0.0       5.8
 1 C  dxy             0.0       0.2       0.2       0.0       0.1       0.0
 2 H  s              18.2       0.0      13.8      19.2      18.6       0.8
 2 H  pz              1.9       0.0       0.4       1.7       1.9       0.5
 2 H  px              0.8       0.0       3.2       1.5       0.8       0.0
 2 H  py              0.0       0.2       0.0       0.1       0.1       0.0
 3 O  s               0.8       0.0       0.0       0.2       0.0       2.8
 3 O  pz              0.0       0.0      13.8       0.0       2.0       0.2
 3 O  px              0.1       0.0       0.2       2.3       0.0      15.1
 3 O  py              0.0       0.8       0.5       0.0       0.1       0.0
 3 O  dz2             0.0       0.0       0.0       0.2       0.0       2.3
 3 O  dxz             0.0       0.0       0.5       0.0       0.5       0.4
 3 O  dx2y2           0.3       0.0       0.0       1.2       0.0       7.1
 3 O  dxy             0.0       0.5       0.0       0.0       0.0       0.0

                     18        19        20        21        22        23   
                   0.94723   1.05309   1.16299   1.23277   1.35100   1.50400
                   0.00000   0.00000   0.00000   0.00000   0.00000   0.00000
                  --------  --------  --------  --------  --------  --------
 0 H  s               0.1       0.0       0.2       0.0       0.0       0.0
 0 H  pz              0.3       0.1       0.6       1.1       0.1       0.8
 0 H  px              1.0       0.0       1.1       0.1       1.5       0.0
 0 H  py              0.0       1.5       0.0      31.4       0.0      22.8
 1 C  s               1.5       0.0       0.0       0.0       3.1       0.0
 1 C  pz              0.0       0.0       6.3       0.0       0.0       0.1
 1 C  px              0.8       0.0       0.1       0.0       0.1       0.0
 1 C  py              0.0       0.5       0.2       0.0       0.0       3.6
 1 C  dz2             1.1       0.0       0.1       3.2       3.0       0.0
 1 C  dxz             0.2       0.0       2.4       0.1       0.2       1.1
 1 C  dyz             0.0       0.0       0.0      29.8       0.2       0.5
 1 C  dx2y2           2.9       0.0       0.0       1.2       0.3       0.2
 1 C  dxy             0.0       0.6       0.1       0.3       0.0      34.7
 2 H  s               0.1       0.0       0.2       0.0       0.0       0.0
 2 H  pz              0.5       0.1       1.0       1.1       0.4       0.8
 2 H  px              0.7       0.0       0.7       0.1       1.3       0.0
 2 H  py              0.0       1.5       0.0      31.4       0.0      22.8
 3 O  s              12.2       0.0       0.0       0.0      74.2       0.0
 3 O  pz              1.0       3.1      80.5       0.0       0.1       0.1
 3 O  px             76.0       0.2       1.0       0.0       7.1       0.0
 3 O  py              0.0      92.0       2.8       0.0       0.0       4.2
 3 O  dz2             0.3       0.0       0.1       0.0       2.1       0.0
 3 O  dxz             0.1       0.0       2.4       0.0       0.3       0.2
 3 O  dyz             0.0       0.0       0.0       0.3       0.0       0.1
 3 O  dx2y2           1.2       0.0       0.0       0.0       5.9       0.0
 3 O  dxy             0.0       0.3       0.1       0.0       0.0       7.9

                     24        25        26        27        28        29   
                   1.61603   1.68206   1.87727   1.91975   1.98311   2.13818
                   0.00000   0.00000   0.00000   0.00000   0.00000   0.00000
                  --------  --------  --------  --------  --------  --------
 0 H  s               1.7       1.7       1.3       0.3       0.0       0.0
 0 H  pz             20.4       0.2       5.7      14.4       0.7       0.5
 0 H  px             19.8      27.1      17.1       2.6       0.0       0.0
 0 H  py              1.1       0.0       0.1       0.6      21.4      15.8
 1 C  s               0.0       2.1       0.0       1.8       0.0       0.0
 1 C  pz              7.9       0.1       2.2       0.1       0.1       0.0
 1 C  px              0.1       7.4       0.0       5.6       0.0       0.0
 1 C  py              0.3       0.0       0.1       0.0       2.4       0.0
 1 C  dz2             0.2      19.4       1.2       9.2       0.1       5.3
 1 C  dxz             3.9       0.5      30.6       0.0       1.2       0.2
 1 C  dyz             0.0       2.8       0.0       4.2       0.6      48.8
 1 C  dx2y2           0.0       1.1       0.3      31.2       0.2       2.0
 1 C  dxy             0.1       0.1       1.1       0.3      38.3       0.5
 2 H  s               1.7       1.7       1.3       0.3       0.0       0.0
 2 H  pz             29.3       0.6       1.9      16.5       0.7       0.5
 2 H  px             11.3      26.7      20.8       0.6       0.0       0.0
 2 H  py              0.7       0.0       0.2       0.5      21.4      15.8
 3 O  s               0.0       2.3       0.0       3.3       0.0       0.0
 3 O  pz              1.4       0.1       2.0       0.1       0.0       0.0
 3 O  px              0.0       4.7       0.0       4.2       0.0       0.0
 3 O  py              0.0       0.0       0.1       0.0       1.2       0.0
 3 O  dz2             0.0       1.2       0.5       0.2       0.0       1.0
 3 O  dxz             0.1       0.1      12.8       0.0       0.4       0.0
 3 O  dyz             0.0       0.1       0.0       0.3       0.2       8.9
 3 O  dx2y2           0.0       0.1       0.1       3.8       0.1       0.4
 3 O  dxy             0.0       0.0       0.5       0.0      11.1       0.1

                     30        31        32        33        34        35   
                   2.56316   2.64759   2.66230   2.76886   2.97207   3.21228
                   0.00000   0.00000   0.00000   0.00000   0.00000   0.00000
                  --------  --------  --------  --------  --------  --------
 0 H  s               2.4       0.1       5.3       0.0       3.4       0.0
 0 H  pz             16.3       0.4      12.9       0.0       3.7       0.0
 0 H  px              0.1       5.1       4.7       0.0       6.2       0.0
 0 H  py              0.5       0.0       0.3       1.1       0.1       0.2
 1 C  s               7.5       0.2       0.0       0.0       6.3       0.0
 1 C  pz              0.0       0.0      15.6       0.0       0.0       0.0
 1 C  px              3.2       0.1       0.2       0.0       2.4       0.0
 1 C  py              0.0       0.0       0.6       0.0       0.0       1.1
 1 C  dz2             0.2      12.3       0.4       0.8      27.6       0.0
 1 C  dxz             0.4       1.5       9.5       0.0       1.0       0.6
 1 C  dyz             0.4       0.1       0.0       7.3       3.2       0.3
 1 C  dx2y2          17.4      21.4       0.1       0.3       0.0       0.1
 1 C  dxy             0.1       0.0       0.4       0.1       0.0      18.1
 2 H  s               2.4       0.1       5.3       0.0       3.4       0.0
 2 H  pz             15.0       1.3       9.0       0.0       1.7       0.0
 2 H  px              1.4       4.2       8.4       0.0       8.1       0.0
 2 H  py              0.6       0.0       0.5       1.1       0.1       0.2
 3 O  s               1.9       5.0       0.0       0.0       1.5       0.0
 3 O  pz              0.0       0.1       0.8       0.0       0.0       0.0
 3 O  px              2.6       4.5       0.0       0.0       0.7       0.0
 3 O  py              0.0       0.0       0.0       0.0       0.0       1.1
 3 O  dz2            11.2      34.3       1.0       8.3      18.5       0.1
 3 O  dxz             0.0       0.9      23.9       0.4       0.2       2.4
 3 O  dyz             3.2       5.2       0.0      76.7       3.9       1.1
 3 O  dx2y2          13.2       2.9       0.3       3.1       7.7       0.4
 3 O  dxy             0.2       0.1       0.9       0.9       0.1      74.4

                     36        37   
                   3.48790   3.64466
                   0.00000   0.00000
                  --------  --------
 0 H  s               1.9       0.0
 0 H  pz              2.8       0.0
 1 C  s               0.0       8.3
 1 C  pz              0.3       0.1
 1 C  px              0.0       7.2
 1 C  dz2             1.3       1.0
 1 C  dxz            31.1       0.2
 1 C  dx2y2           0.4       3.7
 1 C  dxy             1.2       0.0
 2 H  s               1.9       0.0
 2 H  pz              2.7       0.1
 3 O  s               0.0       5.4
 3 O  pz              1.0       0.1
 3 O  px              0.0       3.8
 3 O  dz2             2.1      16.1
 3 O  dxz            50.7       2.7
 3 O  dx2y2           0.6      51.1
 3 O  dxy             1.9       0.1


                      *****************************
                      * MAYER POPULATION ANALYSIS *
                      *****************************

  NA   - Mulliken gross atomic population
  ZA   - Total nuclear charge
  QA   - Mulliken gross atomic charge
  VA   - Mayer's total valence
  BVA  - Mayer's bonded valence
  FA   - Mayer's free valence

  ATOM       NA         ZA         QA         VA         BVA        FA
  0 H      0.9792     1.0000     0.0208     0.9549     0.9549    -0.0000
  1 C      5.8444     6.0000     0.1556     3.9908     3.9908    -0.0000
  2 H      0.9791     1.0000     0.0209     0.9548     0.9548    -0.0000
  3 O      8.1973     8.0000    -0.1973     2.2306     2.2306    -0.0000

  Mayer bond orders larger than 0.100000
B(  0-H ,  1-C ) :   0.9192 B(  1-C ,  2-H ) :   0.9191 B(  1-C ,  3-O ) :   2.1525 


-------
TIMINGS
-------

Total SCF time: 0 days 0 hours 0 min 1 sec 

Total time                  ....       1.111 sec
Sum of individual times     ....       1.025 sec  ( 92.3%)

SCF preparation             ....       0.197 sec  ( 17.7%)
Fock matrix formation       ....       0.755 sec  ( 68.0%)
  Startup                   ....       0.003 sec  (  0.4% of F)
  Split-RI-J                ....       0.043 sec  (  5.6% of F)
  Chain of spheres X        ....       0.553 sec  ( 73.2% of F)
  XC integration            ....       0.184 sec  ( 24.4% of F)
    XC Preparation          ....       0.000 sec  (  0.0% of XC)
    Basis function eval.    ....       0.036 sec  ( 19.7% of XC)
    Density eval.           ....       0.011 sec  (  6.1% of XC)
    XC-Functional eval.     ....       0.051 sec  ( 27.9% of XC)
    XC-Potential eval.      ....       0.011 sec  (  6.1% of XC)
Diagonalization             ....       0.000 sec  (  0.0%)
Density matrix formation    ....       0.010 sec  (  0.9%)
Total Energy calculation    ....       0.006 sec  (  0.6%)
Population analysis         ....       0.011 sec  (  1.0%)
Orbital Transformation      ....       0.005 sec  (  0.4%)
Orbital Orthonormalization  ....       0.000 sec  (  0.0%)
DIIS solution               ....       0.025 sec  (  2.3%)
  MO trafo                  ....       0.000 sec  (  0.0 % of DIIS)
  Orb grad                  ....       0.000 sec  (  0.0 % of DIIS)
  Energy W gradient         ....       0.000 sec  (  0.0 % of DIIS)
  DIIS error                ....       0.005 sec  ( 19.2 % of DIIS)
  DIIS work                 ....       0.016 sec  ( 64.6 % of DIIS)
  Form Q                    ....       0.000 sec  (  0.0 % of DIIS)
  Form QpQm                 ....       0.000 sec  (  0.0 % of DIIS)
  Exp/Cayley                ....       0.000 sec  (  0.0 % of DIIS)
  Orb update                ....       0.000 sec  (  0.0 % of DIIS)
  Wake-sleep                ....       0.002 sec  (  7.2 % of DIIS)
SOSCF solution              ....       0.016 sec  (  1.5%)
  MO trafo                  ....       0.005 sec  ( 31.9 % of SOSCF)
  Orb grad                  ....       0.001 sec  (  5.3 % of SOSCF)
  Rot update                ....       0.004 sec  ( 24.5 % of SOSCF)
  Step                      ....       0.005 sec  ( 28.6 % of SOSCF)
Finished LeanSCF after   1.1 sec

Maximum memory used throughout the entire LEANSCF-calculation: 5.1 MB


           ************************************************************
           *        Program running with 4 parallel MPI-processes     *
           *              working on a common directory               *
           ************************************************************

------------------------------------------------------------------------------
                         ORCA PROPERTY INTEGRAL CALCULATIONS
------------------------------------------------------------------------------

GBWName                                   ... /tmp/qrhuang/orcajob_428678-OVJS/CH2O.gbw
Number of atoms                           ...      4
Number of basis functions                 ...     38
Max core memory                           ...   6000 MB

Dipole integrals                          ... YES
Quadrupole integrals                      ...  NO
Linear momentum integrals                 ...  NO
Angular momentum integrals                ...  NO
Higher moments length integrals           ...  NO
Higher moments velocity integrals         ...  NO
Kinetic energy integrals                  ...  NO
GIAO right hand sides                     ...  NO
GIAO dipole derivative integrals          ...  NO
SOC integrals                             ...  NO
EPR diamagnetic integrals (GIAO)          ...  NO
EPR gauge integrals                       ...  NO
Field gradient integrals                  ...  NO (   0 nuclei)
Spin-dipole/Fermi contact integrals       ...  NO (   0 nuclei)
Contact density integrals                 ...  NO (   0 nuclei)
Nucleus-orbit integrals                   ...  NO (   0 nuclei)
Geometric perturbations                   ...  NO (   4 nuclei)

Choice of electric origin   ... Center of mass
Position of electric origin ... ( -0.0169, -0.0005, -0.0020) 
Choice of magnetic origin   ... GIAO
Position of magnetic origin ... (  0.0000,  0.0000,  0.0000) 

Calculating integrals                     ... Electric Dipole (Length)     done (  0.0 sec)

Property integrals calculated in   0.0 sec

Maximum memory used throughout the entire PROPINT-calculation: 5.7 MB

-------------------------   --------------------
FINAL SINGLE POINT ENERGY      -114.364646720651
-------------------------   --------------------



           ************************************************************
           *        Program running with 4 parallel MPI-processes     *
           *              working on a common directory               *
           ************************************************************
------------------------------------------------------------------------------
                         ORCA SCF GRADIENT CALCULATION
------------------------------------------------------------------------------

Nuc. rep. gradient        (SHARK) ... done (  0.0 sec)
HCore & Overlap gradient  (SHARK) ... done (  0.0 sec)
Split-RIJ-J gradient      (SHARK) ... done (  0.1 sec)
done (  0.3 sec)
XC gradient                       ... done (  0.0 sec)

------------------
CARTESIAN GRADIENT
------------------

   1   H   :   -0.000002920   -0.000006596    0.000009326
   2   C   :    0.000016894   -0.000000411    0.000003199
   3   H   :   -0.000002211   -0.000002107   -0.000006709
   4   O   :   -0.000011764    0.000009114   -0.000005815

Difference to translation invariance:
           :   -0.0000000001   -0.0000000000   -0.0000000000

Difference to rotation invariance:
           :    0.0000064496   -0.0000117709   -0.0000301393

Norm of the Cartesian gradient     ...    0.0000272843
RMS gradient                       ...    0.0000078763
MAX gradient                       ...    0.0000168944

-------
TIMINGS
-------

Total SCF gradient time     ....        0.378 sec

Densities                   ....       0.000 sec  (  0.0%)
One electron gradient       ....       0.006 sec  (  1.5%)
RI-J Coulomb gradient       ....       0.080 sec  ( 21.3%)
COSX gradient               ....       0.256 sec  ( 67.6%)
XC gradient                 ....       0.035 sec  (  9.3%)

Maximum memory used throughout the entire SCFGRAD-calculation: 6.6 MB
------------------------------------------------------------------------------
                         ORCA GEOMETRY RELAXATION STEP
------------------------------------------------------------------------------

Reading the OPT-File                    .... done
Getting information on internals        .... done
Copying old internal coords+grads       .... done
Making the new internal coordinates     .... (2022 redundants) done
Validating the new internal coordinates .... (2022 redundants) done
Calculating the B-matrix                .... done
Calculating the G,G- and P matrices     .... done
Transforming gradient to internals      .... done
Projecting the internal gradient        .... done
Number of atoms                         ....   4
Number of internal coordinates          ....   7
Current Energy                          ....  -114.364646721 Eh
Current gradient norm                   ....     0.000027284 Eh/bohr
Maximum allowed component of the step   ....  0.300
Current trust radius                    ....  0.300
Evaluating the initial hessian          ....  (Almloef) done
Projecting the Hessian                  .... done
Forming the augmented Hessian           .... done
Diagonalizing the augmented Hessian     .... done
Last element of RFO vector              ....  0.999999999
Lowest eigenvalues of augmented Hessian:
 -0.000000001  0.023897760  0.315158420  0.324230615  0.324230722
Length of the computed step             ....  0.000051140
The final length of the internal step   ....  0.000051140
Converting the step to Cartesian space:
 Initial RMS(Int)=    0.0000193290
Transforming coordinates:
 Iter   0:  RMS(Cart)=    0.0000148607 RMS(Int)=    0.0000193291
done
Storing new coordinates                 .... done

                                .--------------------.
          ----------------------|Geometry convergence|-------------------------
          Item                value                   Tolerance       Converged
          ---------------------------------------------------------------------
          RMS gradient        0.0000073400            0.0001000000      YES
          MAX gradient        0.0000121186            0.0003000000      YES
          RMS step            0.0000193290            0.0020000000      YES
          MAX step            0.0000293290            0.0040000000      YES
          -------------------------------------------------------------------------
          ........................................................
          Max(Bonds)      0.0000      Max(Angles)    0.00
          Max(Dihed)        0.00      Max(Improp)    0.00
          ---------------------------------------------------------------------

                    ***********************HURRAY********************
                    ***        THE OPTIMIZATION HAS CONVERGED     ***
                    *************************************************


    ---------------------------------------------------------------------------
                         Redundant Internal Coordinates

                          --- Optimized Parameters ---  
                            (Angstroem and degrees)

        Definition                    OldVal   dE/dq     Step     FinalVal
    ----------------------------------------------------------------------------
     1. B(C   1,H   0)                1.1186  0.000008 -0.0000    1.1185   
     2. B(H   2,C   1)                1.1186  0.000003 -0.0000    1.1186   
     3. B(O   3,C   1)                1.1957  0.000012 -0.0000    1.1957   
     4. A(H   0,C   1,O   3)          122.43 -0.000001    0.00    122.43   
     5. A(H   2,C   1,O   3)          122.43 -0.000008    0.00    122.43   
     6. A(H   0,C   1,H   2)          115.14  0.000009   -0.00    115.14   
     7. I(H   0,O   3,H   2,C   1)     -0.00 -0.000000    0.00      0.00   
    ----------------------------------------------------------------------------

Geometry step timings:
Preparation and reading OPT file:      0.000 s ( 1.766 %)
Internal coordinates            :      0.000 s ( 1.243 %)
B/P matrices and projection     :      0.000 s ( 7.260 %)
Hessian update/contruction      :      0.000 s ( 7.587 %)
Making the step                 :      0.001 s (66.906 %)
Converting the step to Cartesian:      0.000 s ( 3.270 %)
Storing new data                :      0.000 s ( 2.485 %)
Checking convergence            :      0.000 s ( 1.897 %)
Final printing                  :      0.000 s ( 7.587 %)
Total time                      :      0.002 s
                 *******************************************************
                 *** FINAL ENERGY EVALUATION AT THE STATIONARY POINT ***
                 ***               (AFTER    1 CYCLES)               ***
                 *******************************************************
---------------------------------
CARTESIAN COORDINATES (ANGSTROEM)
---------------------------------
  H      1.077730   -0.143865    1.058175
  C      0.583790    0.014754    0.067208
  H      1.281358    0.203506   -0.786572
  O     -0.603678   -0.015295   -0.069511

----------------------------
CARTESIAN COORDINATES (A.U.)
----------------------------
  NO LB      ZA    FRAG     MASS         X           Y           Z
   0 H     1.0000    0     1.008    2.036614   -0.271866    1.999661
   1 C     6.0000    0    12.011    1.103203    0.027881    0.127005
   2 H     1.0000    0     1.008    2.421415    0.384571   -1.486406
   3 O     8.0000    0    15.999   -1.140786   -0.028903   -0.131358

--------------------------------
INTERNAL COORDINATES (ANGSTROEM)
--------------------------------
 H      0   0   0     0.000000000000     0.00000000     0.00000000
 C      1   0   0     1.118549158061     0.00000000     0.00000000
 H      2   1   0     1.118556634450   115.13590129     0.00000000
 O      2   1   3     1.195690245914   122.43147958   179.99901176

---------------------------
INTERNAL COORDINATES (A.U.)
---------------------------
 H      0   0   0     0.000000000000     0.00000000     0.00000000
 C      1   0   0     2.113751576063     0.00000000     0.00000000
 H      2   1   0     2.113765704392   115.13590129     0.00000000
 O      2   1   3     2.259527105778   122.43147958   179.99901176

---------------------
BASIS SET INFORMATION
---------------------
There are 3 groups of distinct atoms

 Group   1 Type H   : 4s1p contracted to 2s1p pattern {31/1}
 Group   2 Type C   : 7s4p1d contracted to 3s2p1d pattern {511/31/1}
 Group   3 Type O   : 7s4p1d contracted to 3s2p1d pattern {511/31/1}

Atom   0H    basis set group =>   1
Atom   1C    basis set group =>   2
Atom   2H    basis set group =>   1
Atom   3O    basis set group =>   3
---------------------------------
AUXILIARY/J BASIS SET INFORMATION
---------------------------------
There are 3 groups of distinct atoms

 Group   1 Type H   : 5s2p1d contracted to 3s1p1d pattern {311/2/1}
 Group   2 Type C   : 12s5p4d2f1g contracted to 6s4p3d1f1g pattern {711111/2111/211/2/1}
 Group   3 Type O   : 12s5p4d2f1g contracted to 6s4p3d1f1g pattern {711111/2111/211/2/1}

Atom   0H    basis set group =>   1
Atom   1C    basis set group =>   2
Atom   2H    basis set group =>   1
Atom   3O    basis set group =>   3


           ************************************************************
           *        Program running with 4 parallel MPI-processes     *
           *              working on a common directory               *
           ************************************************************
------------------------------------------------------------------------------
                             ORCA STARTUP CALCULATIONS
                           -- RI-GTO INTEGRALS CHOSEN --
------------------------------------------------------------------------------
------------------------------------------------------------------------------
                   ___                                                        
                  /   \      - P O W E R E D   B Y -                         
                 /     \                                                     
                 |  |  |   _    _      __       _____    __    __             
                 |  |  |  | |  | |    /  \     |  _  \  |  |  /  |          
                  \  \/   | |  | |   /    \    | | | |  |  | /  /          
                 / \  \   | |__| |  /  /\  \   | |_| |  |  |/  /          
                |  |  |   |  __  | /  /__\  \  |    /   |      \           
                |  |  |   | |  | | |   __   |  |    \   |  |\   \          
                \     /   | |  | | |  |  |  |  | |\  \  |  | \   \       
                 \___/    |_|  |_| |__|  |__|  |_| \__\ |__|  \__/        
                                                                              
                      - O R C A' S   B I G   F R I E N D -                    
                                      &                                       
                       - I N T E G R A L  F E E D E R -                       
                                                                              
 v1 FN, 2020, v2 2021, v3 2022-2024                                           
------------------------------------------------------------------------------


----------------------
SHARK INTEGRAL PACKAGE
----------------------

Number of atoms                             ...      4
Number of basis functions                   ...     38
Number of shells                            ...     18
Maximum angular momentum                    ...      2
Integral batch strategy                     ... SHARK/LIBINT Hybrid
RI-J (if used) integral strategy            ... SPLIT-RIJ (Revised 2003 algorithm where possible)
Printlevel                                  ...      1
Contraction scheme used                     ... SEGMENTED contraction
Prescreening option                         ... SCHWARTZ
   Thresh                                   ... 2.500e-11
   Tcut                                     ... 2.500e-12
   Tpresel                                  ... 2.500e-12 
Coulomb Range Separation                    ... NOT USED
Exchange Range Separation                   ... Long Range
   Mu parameter                             ... 3.300e-01
   Scaling (regular/separated)              ... 1.900e-01 4.600e-01
Robust (split-)RI terms used:
  metric    (central integrals)             ... YES
  density   (r.h.s.  integrals)             ... YES
  potential (l.h.s.  integrals)             ... YES
Multipole approximations                    ... NOT USED
Finite Nucleus Model                        ... NOT USED
CABS basis                                  ... NOT available
Auxiliary Coulomb fitting basis             ... AVAILABLE
   # of basis functions in Aux-J            ...    120
   # of shells in Aux-J                     ...     40
   Maximum angular momentum in Aux-J        ...      4
Auxiliary J/K fitting basis                 ... NOT available
Auxiliary Correlation fitting basis         ... NOT available
Auxiliary 'external' fitting basis          ... NOT available

Checking pre-screening integrals            ... done (  0.0 sec) Dimension = 18
   => SHARK Basis and OBASIS are compatible. Storing Pre-screening
Shell pair information
Shell pair cut-off parameter TPreSel        ...   2.5e-12
Total number of shell pairs                 ...       171
Shell pairs after pre-screening             ...       171
Total number of primitive shell pairs       ...       627
Primitive shell pairs kept                  ...       577
          la=0 lb=0:     55 shell pairs
          la=1 lb=0:     60 shell pairs
          la=1 lb=1:     21 shell pairs
          la=2 lb=0:     20 shell pairs
          la=2 lb=1:     12 shell pairs
          la=2 lb=2:      3 shell pairs

Checking whether 4 symmetric matrices of dimension 38 fit in memory
:Max Core in MB      =   6000.00
 MB in use           =      3.40
 MB left             =   5996.60
 MB needed           =      0.02
 Data fit in memory  = YES
Calculating RI/J V-Matrix + Cholesky decomp.... done (  0.0 sec)
Calculating Nuclear repulsion               ... done (  0.0 sec) ENN=     31.374385913397 Eh

Diagonalization of the overlap matrix:
Smallest eigenvalue                        ... 1.826e-02
Time for diagonalization                   ...    0.000 sec
Threshold for overlap eigenvalues          ... 1.000e-07
Number of eigenvalues below threshold      ... 0
Time for construction of square roots      ...    0.000 sec
Total time needed                          ...    0.001 sec

-------------------
DFT GRID GENERATION
-------------------

General Integration Accuracy     IntAcc      ... 4.388
Radial Grid Type                 RadialGrid  ... OptM3 with GC (2021)
Angular Grid (max. ang.)         AngularGrid ... 4 (Lebedev-302)
Angular grid pruning method      GridPruning ... 4 (adaptive)
Weight generation scheme         WeightScheme... mBecke (2022)
Basis function cutoff            BFCut       ... 1.0000e-11
Integration weight cutoff        WCut        ... 1.0000e-14
Partially contracted basis set               ... off
Rotationally invariant grid construction     ... off
Angular grids for H and He will be reduced by one unit

Total number of grid points                  ...    18830
Total number of batches                      ...      296
Average number of points per batch           ...       63
Average number of grid points per atom       ...     4708

--------------------
COSX GRID GENERATION
--------------------

GRIDX 1
-------
General Integration Accuracy     IntAcc      ... 3.816
Radial Grid Type                 RadialGrid  ... OptM3 with GC (2021)
Angular Grid (max. ang.)         AngularGrid ... 1 (Lebedev-50)
Angular grid pruning method      GridPruning ... 4 (adaptive)
Weight generation scheme         WeightScheme... mBecke (2022)
Basis function cutoff            BFCut       ... 1.0000e-11
Integration weight cutoff        WCut        ... 1.0000e-14
Partially contracted basis set               ... on
Rotationally invariant grid construction     ... off
Angular grids for H and He will be reduced by one unit

[...]
  ITERATION   4:   ||err||_max =   8.7735e-04 (   0.1 sec   0/ 12 done)
  ITERATION   5:   ||err||_max =   1.8882e-04 (   0.1 sec   7/ 12 done)
  ITERATION   6:   ||err||_max =   3.2860e-05 (   0.1 sec  12/ 12 done)

CP-SCF equations solved in   0.4 sec
Response densities calculated in   0.0 sec

Maximum memory used throughout the entire SCFRESP-calculation: 6.6 MB


           ************************************************************
           *        Program running with 4 parallel MPI-processes     *
           *              working on a common directory               *
           ************************************************************

------------------------------------------------------------------------------
                              ORCA PROPERTY CALCULATIONS
------------------------------------------------------------------------------

GBWName                                 ... /tmp/qrhuang/orcajob_428678-OVJS/CH2O.gbw
Number of atoms                         ...      4
Number of basis functions               ...     38
Max core memory                         ...   6000 MB

Electric properties:
Dipole moment                           ... YES
Quadrupole moment                       ...  NO
Static polarizability (Dipole/Dipole)   ...  NO
Static polarizability (Dipole/Quad.)    ...  NO
Static polarizability (Quad./Quad.)     ...  NO
Static polarizability (Velocity)        ...  NO
Static hyperpolarizability              ...  NO

Atomic electric properties:
Dipole moment                           ...  NO
Quadrupole moment                       ...  NO
Static polarizability                   ...  NO

Choice of electric origin               ... Center of mass
Position of electric origin             ...    -0.016891    -0.000464    -0.001958

General magnetic properties:
Magnetizability                         ...  NO

EPR properties:
g-Tensor (aka g-matrix)                 ...  NO
Zero-Field splitting spin-orbit         ...  NO
Zero-field splitting spin-spin          ...  NO
Hyperfine couplings                     ...  NO (   0 nuclei)
Quadrupole couplings                    ...  NO (   0 nuclei)
Contact density                         ...  NO (   0 nuclei)

NMR properties:
Chemical shifts                         ...  NO (   0 nuclei)
Spin-rotation constants                 ...  NO (   0 nuclei)
Spin-spin couplings                     ...  NO (   0 nuclei,    0 pairs)

Choice of magnetic origin               ... GIAO
Position of magnetic origin             ...     0.000000     0.000000     0.000000

Properties with geometric perturbations:
SCF Hessian                             ... YES
IR spectrum                             ... YES
VCD spectrum                            ...  NO
X-ray spectroscopy properties:
SCF XES/XAS/RIXS spectra                ...  NO

SCF SOC stabilization energy            ...  NO
Diagonal Born-Oppenheimer correction    ...  NO

-------------
DIPOLE MOMENT
-------------

Method             : SCF
Type of density    : Electron Density
Multiplicity       :   1
Irrep              :   0
Energy             :  -114.3646444210188946 Eh
Basis              : AO
                                X                 Y                 Z
Electronic contribution:     -1.367247929      -0.034542071      -0.157350653
Nuclear contribution   :      2.221215867       0.056191713       0.255742054
                        -----------------------------------------
Total Dipole Moment    :      0.853967938       0.021649643       0.098391401
                        -----------------------------------------
Magnitude (a.u.)       :      0.859890001
Magnitude (Debye)      :      2.185666685



--------------------
Rotational spectrum 
--------------------
 
Rotational constants in cm-1:             9.381649             1.306458             1.146763 
Rotational constants in MHz :        281254.749317         39166.627868         34379.104789 

Dipole components along the rotational axes: 
x,y,z [a.u.] :     0.859890     0.000062     0.000053 
x,y,z [Debye]:     2.185667     0.000157     0.000136 

 

Dipole moment calculation done in   0.0 sec 

-----------
SCF HESSIAN
-----------

Occupied/Occupied contributions to the Hessian:
   => Occupied/Occupied contributions              ... done (  0.0 sec)
Perturbed density contributions to the Hessian:
   => Perturbed density contributions              ... done (  0.0 sec)
Explicit contributions to the Hessian:
   => Nuclear repulsion Hessian                    ... done (  0.0 sec)
   => HCore and overlap Hessian                    ... done (  0.0 sec)
   => RI-J Hessian                                 ... done (  0.1 sec)
   => COSX Hessian                                 ... done (  1.7 sec)
   => XC-Hessian                                   ... done (  0.2 sec)
   => Explicit contributions done
Dipole derivatives                                 ... done (  0.0 sec)
Mass weighting the Hessian           ... done
Calculating normal modes             ... done
Scaling frequencies                  ... done

-----------------------
VIBRATIONAL FREQUENCIES
-----------------------

Scaling factor for frequencies =  1.000000000  (already applied!)

     0:       0.00 cm**-1
     1:       0.00 cm**-1
     2:       0.00 cm**-1
     3:       0.00 cm**-1
     4:       0.00 cm**-1
     5:       0.00 cm**-1
     6:    1206.12 cm**-1
     7:    1276.48 cm**-1
     8:    1538.17 cm**-1
     9:    1897.05 cm**-1
    10:    2908.52 cm**-1
    11:    2975.57 cm**-1


------------
NORMAL MODES
------------

These modes are the Cartesian displacements weighted by the diagonal matrix
M(i,i)=1/sqrt(m[i]) where m[i] is the mass of the displaced atom
Thus, these vectors are normalized but *not* orthogonal

                  0          1          2          3          4          5    
      0       0.000000   0.000000   0.000000   0.000000   0.000000   0.000000
      1       0.000000   0.000000   0.000000   0.000000   0.000000   0.000000
      2       0.000000   0.000000   0.000000   0.000000   0.000000   0.000000
      3       0.000000   0.000000   0.000000   0.000000   0.000000   0.000000
      4       0.000000   0.000000   0.000000   0.000000   0.000000   0.000000
      5       0.000000   0.000000   0.000000   0.000000   0.000000   0.000000
      6       0.000000   0.000000   0.000000   0.000000   0.000000   0.000000
      7       0.000000   0.000000   0.000000   0.000000   0.000000   0.000000
      8       0.000000   0.000000   0.000000   0.000000   0.000000   0.000000
      9       0.000000   0.000000   0.000000   0.000000   0.000000   0.000000
     10       0.000000   0.000000   0.000000   0.000000   0.000000   0.000000
     11       0.000000   0.000000   0.000000   0.000000   0.000000   0.000000
                  6          7          8          9         10         11    
      0      -0.031975  -0.672122   0.640933  -0.192162  -0.291229  -0.305134
      1       0.683352  -0.063086   0.081438  -0.085720   0.102617   0.100601
      2       0.125194   0.172147  -0.282754   0.418886  -0.633929  -0.626652
      3       0.008009   0.016116  -0.002692   0.603182   0.059997  -0.010878
      4      -0.172233   0.027627  -0.000050   0.015282   0.001535  -0.018616
      5      -0.031621  -0.146231  -0.000286   0.069446   0.006812   0.098927
      6      -0.031257   0.617944   0.563019  -0.095545  -0.422962   0.433224
      7       0.683357  -0.030471  -0.051144   0.078337  -0.120889   0.119037
      8       0.125371   0.320867   0.421287  -0.452237   0.552838  -0.540348
      9      -0.002029  -0.008685  -0.073833  -0.434703  -0.000045   0.000097
     10       0.043193  -0.014846  -0.001871  -0.011008  -0.000001   0.000138
     11       0.007953   0.078719  -0.008513  -0.050034  -0.000005  -0.000742


-----------
IR SPECTRUM
-----------

 Mode   freq       eps      Int      T**2         TX        TY        TZ
       cm**-1   L/(mol*cm) km/mol    a.u.
----------------------------------------------------------------------------
  6:   1206.12   0.000280    1.41  0.000072  (-0.000397  0.008357  0.001525)
  7:   1276.48   0.002947   14.89  0.000720  ( 0.002902  0.004928 -0.026225)
  8:   1538.17   0.001283    6.48  0.000260  ( 0.016022  0.000401  0.001830)
  9:   1897.05   0.022737  114.90  0.003740  ( 0.060734  0.001541  0.007018)
 10:   2908.52   0.010530   53.21  0.001130  ( 0.033387  0.000839  0.003797)
 11:   2975.57   0.027529  139.12  0.002887  (-0.005795 -0.009827  0.052507)

* The epsilon (eps) is given for a Dirac delta lineshape.
** The dipole moment derivative (T) already includes vibrational overlap.

The first frequency considered to be a vibration is 6
The total number of vibrations considered is 6


--------------------------
THERMOCHEMISTRY AT 298.15K
--------------------------

Temperature         ...   298.15 K
Pressure            ...     1.00 atm
Total Mass          ...    30.03 AMU
Quasi RRHO          ...     True
Cut-Off Frequency   ...     1.00 cm^-1

Throughout the following assumptions are being made:
  (1) The electronic state is orbitally nondegenerate
  (2) There are no thermally accessible electronically excited states
  (3) Hindered rotations indicated by low frequency modes are not
      treated as such but are treated as vibrations and this may
      cause some error
  (4) All equations used are the standard statistical mechanics
      equations for an ideal gas
  (5) All vibrations are strictly harmonic

freq.    1206.12  E(vib)   ...       0.01 
freq.    1276.48  E(vib)   ...       0.01 
freq.    1538.17  E(vib)   ...       0.00 
freq.    1897.05  E(vib)   ...       0.00 
freq.    2908.52  E(vib)   ...       0.00 
freq.    2975.57  E(vib)   ...       0.00 

------------
INNER ENERGY
------------

The inner energy is: U= E(el) + E(ZPE) + E(vib) + E(rot) + E(trans)
    E(el)   - is the total energy from the electronic structure calculation
              = E(kin-el) + E(nuc-el) + E(el-el) + E(nuc-nuc)
    E(ZPE)  - the the zero temperature vibrational energy from the frequency calculation
    E(vib)  - the the finite temperature correction to E(ZPE) due to population
              of excited vibrational states
    E(rot)  - is the rotational thermal energy
    E(trans)- is the translational thermal energy

Summary of contributions to the inner energy U:
Electronic energy                ...   -114.36464442 Eh
Zero point energy                ...      0.02688672 Eh      16.87 kcal/mol
Thermal vibrational correction   ...      0.00003379 Eh       0.02 kcal/mol
Thermal rotational correction    ...      0.00141627 Eh       0.89 kcal/mol
Thermal translational correction ...      0.00141627 Eh       0.89 kcal/mol
-----------------------------------------------------------------------
Total thermal energy                   -114.33489136 Eh


Summary of corrections to the electronic energy:
(perhaps to be used in another calculation)
Total thermal correction                  0.00286633 Eh       1.80 kcal/mol
Non-thermal (ZPE) correction              0.02688672 Eh      16.87 kcal/mol
-----------------------------------------------------------------------
Total correction                          0.02975306 Eh      18.67 kcal/mol


--------
ENTHALPY
--------

The enthalpy is H = U + kB*T
                kB is Boltzmann's constant
Total thermal energy              ...   -114.33489136 Eh 
Thermal Enthalpy correction       ...      0.00094421 Eh       0.59 kcal/mol
-----------------------------------------------------------------------
Total Enthalpy                    ...   -114.33394716 Eh


Note: Rotational entropy computed according to Herzberg 
Infrared and Raman Spectra, Chapter V,1, Van Nostrand Reinhold, 1945 
Point Group:  C2v, Symmetry Number:   2  
Rotational constants in cm-1:     9.381657     1.306459     1.146764 

Vibrational entropy computed according to the QRRHO of S. Grimme
Chem.Eur.J. 2012 18 9955 using a reference frequency of 100.0 cm-1


-------
ENTROPY
-------

The entropy contributions are T*S = T*(S(el)+S(vib)+S(rot)+S(trans))
     S(el)   - electronic entropy
     S(vib)  - vibrational entropy
     S(rot)  - rotational entropy
     S(trans)- translational entropy
The entropies will be listed as multiplied by the temperature to get
units of energy

Electronic entropy                ...      0.00000000 Eh      0.00 kcal/mol
Vibrational entropy               ...      0.00003927 Eh      0.02 kcal/mol
Rotational entropy                ...      0.00760861 Eh      4.77 kcal/mol
Translational entropy             ...      0.01716732 Eh     10.77 kcal/mol
-----------------------------------------------------------------------
Final entropy term                ...      0.02481520 Eh     15.57 kcal/mol

In case the symmetry of your molecule has not been determined correctly
or in case you have a reason to use a different symmetry number we print 
out the resulting rotational entropy values for sn=1,12:

 non-linear molecules -----------------------------------
|  sn= 1 | S(rot)=       0.00826306 Eh      5.19 kcal/mol|
|  sn= 2 | S(rot)=       0.00760861 Eh      4.77 kcal/mol|
|  sn= 3 | S(rot)=       0.00722578 Eh      4.53 kcal/mol|
|  sn= 4 | S(rot)=       0.00695415 Eh      4.36 kcal/mol|
|  sn= 5 | S(rot)=       0.00674346 Eh      4.23 kcal/mol|
|  sn= 6 | S(rot)=       0.00657132 Eh      4.12 kcal/mol|
|  sn= 7 | S(rot)=       0.00642577 Eh      4.03 kcal/mol|
|  sn= 8 | S(rot)=       0.00629970 Eh      3.95 kcal/mol|
|  sn= 9 | S(rot)=       0.00618849 Eh      3.88 kcal/mol|
|  sn=10 | S(rot)=       0.00608901 Eh      3.82 kcal/mol|
|  sn=11 | S(rot)=       0.00599902 Eh      3.76 kcal/mol|
|  sn=12 | S(rot)=       0.00591686 Eh      3.71 kcal/mol|
 linear molecules ---------------------------------------
|  Dinfh | S(rot)=       0.00519651 Eh      3.26 kcal/mol|
|  Cinfv | S(rot)=       0.00585096 Eh      3.67 kcal/mol|
 --------------------------------------------------------


-------------------
GIBBS FREE ENERGY
-------------------

The Gibbs free energy is G = H - T*S

Total enthalpy                    ...   -114.33394716 Eh 
Total entropy correction          ...     -0.02481520 Eh    -15.57 kcal/mol
-----------------------------------------------------------------------
Final Gibbs free energy         ...   -114.35876235 Eh

For completeness - the Gibbs free energy minus the electronic energy
G-E(el)                           ...      0.00588207 Eh      3.69 kcal/mol


Maximum memory used throughout the entire PROP-calculation: 8.7 MB

--------------------------------
SUGGESTED CITATIONS FOR THIS RUN
--------------------------------

Below you find a list of papers that are relevant to this ORCA run
We neither can nor want to force you to cite these papers, but we appreciate if you do
You receive ORCA, which is the product of decades of hard work by many enthusiastic individuals, for free
The only thing we kindly ask in return is that you cite our papers,
We deeply appreciate it, if you show your appreciation for ORCA by not just citing the generic ORCA reference.

Please note that relegating all ORCA citations to the supporting information does *not* help us.
SI sections are not indexed - citations you put there will not count into any citation statistics
But we need these citations in order to attract the funding resources that allow us to do what we are doing

Therefore, if you are a happy ORCA user, please consider citing a few of the papers listed below in the main body of your paper

In addition to the list printed below, the program has created the file /tmp/qrhuang/orcajob_428678-OVJS/CH2O.bibtex that contains the list in bibtex format
You can import this file easily into all common literature databanks and citation aid programs


List of essential papers. We consider these as the minimum necessary citations

  1. Neese, F.
     Software update: the ORCA program system, version 6.0
     WIRES Comput. Molec. Sci. 2025 15(1), e70019
     doi.org/10.1002/wcms.7019

List of papers to cite with high priority. The work reported in these papers was absolutely
necessary for this run to complete.
Our perspective: the developers of density functionals and basis sets usually get cited in chemistry papers
Good! But without the algorithms to do something with them, the functionals or basis sets would not do anything.
Hence, in our opinion, the algorithm design and method developments papers are equally worthy of getting cited

  1. Neese, F.
     An improvement of the resolution of the identity approximation for the formation of the Coulomb matrix
     J. Comp. Chem. 2003 24(14), 1740-1747
     doi.org/10.1002/jcc.10318
  2. Neese, F.; Wennmohs, F.; Hansen, A.; Becker, U.
     Efficient, approximate and parallel Hartree-Fock and hybrid DFT calculations. A 'chain-of-spheres' algorithm for the Hartree-Fock exchange
     Chem. Phys. 2009 356(1-3), 98-109
     doi.org/10.1016/j.chemphys.2008.10.036
  3. Bykov, D.; Petrenko, T.; Izsak, R.; Kossmann, S.; Becker, U.; Valeev, E.; Neese, F.
     Efficient implementation of the analytic second derivatives of Hartree-Fock and hybrid DFT energies: a detailed analysis of different approximations
     Molec. Phys. 2015 113 , 1961-1977
     doi.org/10.1080/00268976.2015.1025114
  4. Helmich-Paris, B.; de Souza, B.; Neese, F.; Izsák, R.
     An improved chain of spheres for exchange algorithm
     J. Chem. Phys. 2021 155(10), 104109
     doi.org/10.1063/5.0058766
  5. Neese, F.
     The SHARK Integral Generation and Digestion System
     J. Comp. Chem. 2022 44(3), 381
     doi.org/10.1002/jcc.26942

List of suggested additional citations. These are papers that are important in the 'surrounding' of 
of this run, or papers that preceded the highly important papers. If you like your results we are grateful for a citation.

  1. Izsak, R.; Neese, F.
     An overlap fitted chain of spheres exchange method
     J. Chem. Phys. 2011 135 , 144105
     doi.org/10.1063/1.3646921
  2. Izsak, R.; Hansen, A.; Neese, F.
     The resolution of identity and chain of spheres approximations for the LPNO-CCSD singles Fock term
     Molec. Phys. 2012 110 , 2413-2417
     doi.org/10.1080/00268976.2012.687466
  3. Neese, F.
     The ORCA program system
     WIRES Comput. Molec. Sci. 2012 2(1), 73-78
     doi.org/10.1002/wcms.81
  4. Izsak, R.; Neese, F.; Klopper, W.
     Robust fitting techniques in the chain of spheres approximation to the Fock exchange: The role of the complementary space
     J. Chem. Phys. 2013 139 , 
     doi.org/10.1063/1.4819264
  5. Neese, F.
     Software update: the ORCA program system, version 4.0
     WIRES Comput. Molec. Sci. 2018 8(1), 1-6
     doi.org/10.1002/wcms.1327
  6. Neese, F.; Wennmohs, F.; Becker, U.; Riplinger, C.
     The ORCA quantum chemistry program package
     J. Chem. Phys. 2020 152(22), 224108
     doi.org/10.1063/5.0004608
  7. Neese, F.
     Software update: The ORCA program system—Version 5.0
     WIRES Comput. Molec. Sci. 2022 12(1), e1606
     doi.org/10.1002/wcms.1606

List of optional additional citations

  1. Neese, F.
     Approximate second-order SCF convergence for spin unrestricted wavefunctions
     Chem. Phys. Lett. 2000 325(1-3), 93-98
     doi.org/10.1016/s0009-2614(00)00662-x

Timings for individual modules:

Sum of individual times          ...       12.114 sec (=   0.202 min)
Startup calculation              ...        1.679 sec (=   0.028 min)  13.9 %
SCF iterations                   ...        3.916 sec (=   0.065 min)  32.3 %
Property integrals               ...        1.763 sec (=   0.029 min)  14.6 %
SCF Response                     ...        1.077 sec (=   0.018 min)   8.9 %
Property calculations            ...        2.645 sec (=   0.044 min)  21.8 %
SCF Gradient evaluation          ...        1.022 sec (=   0.017 min)   8.4 %
Geometry relaxation              ...        0.012 sec (=   0.000 min)   0.1 %
                             ****ORCA TERMINATED NORMALLY****
TOTAL RUN TIME: 0 days 0 hours 0 minutes 13 seconds 435 msec
