Gaussian, Inc.  All Rights Reserved.
  Entering Link 1 = l1.exe 
                           Input orientation:
 ---------------------------------------------------------------------
 Center     Atomic      Atomic             Coordinates (Angstroms)
 Number     Number       Type             X          Y          Z
 ---------------------------------------------------------------------
     1         1           0         -1.12          0.94          0.00
     2         6           0         -0.52          0.00         -0.00
     3         1           0         -1.12         -0.94          0.00
     4         8           0          0.67         -0.00          0.00
 ---------------------------------------------------------------------
                        Standard orientation:
 ---------------------------------------------------------------------
 Center     Atomic      Atomic             Coordinates (Angstroms)
 Number     Number       Type             X          Y          Z
 ---------------------------------------------------------------------
     1         1           0         -1.12          0.94          0.00
     2         6           0         -0.52          0.00         -0.00
     3         1           0         -1.12         -0.94          0.00
     4         8           0          0.67         -0.00          0.00
 ---------------------------------------------------------------------
 Harmonic frequencies (cm**-1), IR intensities (KM/Mole), Raman scattering 
 activities (A**4/AMU), depolarization ratios for plane and unpolarized 
 incident light, reduced masses (AMU), force constants (mDyne/A),
 and normal coordinates:

 Frequencies --      1.0000                 2.0000                 3.0000
 Red. masses --      1.3751                 1.3517                 1.0909
 Frc consts  --      1.4306                14.8783                 6.5146
 IR Inten    --   1207.0314              1276.6863              1538.6422
  Atom  AN      X      Y      Z        X      Y      Z        X      Y      Z
     1   1    -0.00   0.00  -0.70     0.65   0.25   0.00     0.61   0.36  -0.00
     2   6     0.00   0.00   0.18    -0.00  -0.15   0.00    -0.00  -0.00   0.00
     3   1    -0.00  -0.00  -0.70    -0.65   0.25  -0.00     0.61  -0.36  -0.00
     4   8     0.00  -0.00  -0.04     0.00   0.08  -0.00    -0.07   0.00   0.00

 Frequencies --      4.0000                 5.0000                 6.0000
 Red. masses --      7.9239                 1.0480                 1.1207
 Frc consts  --    114.8230                53.1188               139.0019
 IR Inten    --   1897.8069              2909.2693              2976.3586
  Atom  AN      X      Y      Z        X      Y      Z        X      Y      Z
     1   1     0.15   0.45  -0.00    -0.36   0.61   0.00     0.37  -0.60  -0.00
     2   6    -0.61   0.00  -0.00     0.06   0.00  -0.00    -0.00   0.10   0.00
     3   1     0.15  -0.45  -0.00    -0.36  -0.61   0.00    -0.37  -0.60   0.00
     4   8     0.44  -0.00   0.00    -0.00  -0.00  -0.00    -0.00  -0.00   0.00

------------------- 
- Thermochemistry - 
------------------- 

Normal termination of Gaussian 09 
