Title Card Required                                                     
Freq      RCAM-B3LYP                                                  def2SVP             
Number of atoms                            I                4
Info1-9                                    I   N=           9
          13          13        1002           0           0         100
           6          18           2
Full Title                                 C   N=           2
Title Card Required     
Route                                      C   N=           3
#p cam-b3lyp/def2svp opt=tight freq 
Charge                                     I                0
Multiplicity                               I                1
Number of electrons                        I               16
Number of alpha electrons                  I                8
Number of beta electrons                   I                8
Number of basis functions                  I               38
Number of independent functions            I               38
Number of point charges in /Mol/           I                0
Number of translation vectors              I                0
Atomic numbers                             I   N=           4
           1           6           1           8
Nuclear charges                            R   N=           4
  1.00000000E+00  6.00000000E+00  1.00000000E+00  8.00000000E+00
Current cartesian coordinates              R   N=          12
 -2.12165978E+00  1.78410314E+00  1.65421371E-06 -9.88069895E-01  5.55111512E-17
 -8.28039643E-07 -2.12166105E+00 -1.78410247E+00  1.65421425E-06  1.27146752E+00
 -8.39674166E-08  2.07476237E-07
Number of symbols in /Mol/                 I                0
Force Field                                I                0
Atom Types                                 C   N=           4
                                                
Int Atom Types                             I   N=           4
           0           0           0           0
MM charges                                 R   N=           4
  0.00000000E+00  0.00000000E+00  0.00000000E+00  0.00000000E+00
Integer atomic weights                     I   N=           4
           1          12           1          16
Real atomic weights                        R   N=           4
  1.00782504E+00  1.20000000E+01  1.00782504E+00  1.59949146E+01
Atom fragment info                         I   N=           4
           0           0           0           0
Atom residue num                           I   N=           4
           0           0           0           0
Nuclear spins                              I   N=           4
           1           0           1           0
Nuclear ZEff                               R   N=           4
 -1.00000000E+00 -3.60000000E+00 -1.00000000E+00 -5.60000000E+00
Nuclear ZNuc                               R   N=           4
  1.00000000E+00  6.00000000E+00  1.00000000E+00  8.00000000E+00
Nuclear QMom                               R   N=           4
  0.00000000E+00  0.00000000E+00  0.00000000E+00  0.00000000E+00
Nuclear GFac                               R   N=           4
  2.79284600E+00  0.00000000E+00  2.79284600E+00  0.00000000E+00
MicOpt                                     I   N=           4
          -1          -1          -1          -1
Number of residues                         I                0
Number of secondary structures             I                0
Redundant internal dimensions              I   N=           4
           7           3           3           1
Redundant internal coordinate indices      I   N=          28
           1           2           0           0           2           3
           0           0           2           4           0           0
           1           2           3           0           1           2
           4           0           3           2           4           0
           1           2           4           3
Redundant internal coordinates             R   N=           7
  2.11377625E+00  2.11377637E+00  2.25953742E+00  2.00952927E+00  2.13682772E+00
  2.13682832E+00  3.14158929E+00
ZRed-IntVec                                I   N=           7
           0           0           0           0           0           0
           0
ZRed-FPVec                                 R   N=           7
  0.00000000E+00  0.00000000E+00  0.00000000E+00  0.00000000E+00  0.00000000E+00
  0.00000000E+00  0.00000000E+00
ZRed-Constraint1                           R   N=           7
  2.11377624E+00  2.11377637E+00  2.25953742E+00  2.00952927E+00  2.13682772E+00
  2.13682832E+00  3.14158929E+00
ZRed-Constraint2                           R   N=           7
  2.06208949E+00  2.06203231E+00  2.27175264E+00  2.03222197E+00  2.12539723E+00
  2.12556610E+00  3.14154036E+00
SymInf integers                            I   N=          26
           1           1           1           1           1           0
           0           0           0           0           0           0
           0           0           0           0           0           0
           0           0           0           0           0           0
           0           0
RotTr to input orientation                 R   N=          12
 -9.93122953E-01 -2.51246442E-02 -1.14348379E-01 -1.07837569E-01 -1.83971082E-01
  9.76998311E-01 -4.55835300E-02  9.82610499E-01  1.79996523E-01  1.21939230E-01
  3.04715478E-03  1.40228474E-02
Number of contracted shells                I               18
Number of primitive shells                 I               34
Pure/Cartesian d shells                    I                0
Pure/Cartesian f shells                    I                0
Highest angular momentum                   I                2
Largest degree of contraction              I                5
Shell types                                I   N=          18
           0           0           1           0           0           0
           1           1          -2           0           0           1
           0           0           0           1           1          -2
Number of primitives per shell             I   N=          18
           3           1           1           5           1           1
           3           1           1           3           1           1
           5           1           1           3           1           1
Shell to atom map                          I   N=          18
           1           1           1           2           2           2
           2           2           2           3           3           3
           4           4           4           4           4           4
Primitive exponents                        R   N=          34
  1.30107010E+01  1.96225720E+00  4.44537960E-01  1.21949620E-01  8.00000000E-01
  1.23840169E+03  1.86290050E+02  4.22511763E+01  1.16765579E+01  3.59305065E+00
  4.02451474E-01  1.30901827E-01  9.46809706E+00  2.01035451E+00  5.47710047E-01
  1.52686138E-01  8.00000000E-01  1.30107010E+01  1.96225720E+00  4.44537960E-01
  1.21949620E-01  8.00000000E-01  2.26617678E+03  3.40870102E+02  7.73631352E+01
  2.14796449E+01  6.65894331E+00  8.09759757E-01  2.55307722E-01  1.77215043E+01
  3.86355054E+00  1.04809209E+00  2.76415444E-01  1.20000000E+00
Contraction coefficients                   R   N=          34
  3.34854848E-02  2.34721871E-01  8.13770285E-01  1.00000000E+00  1.00000000E+00
  5.51736505E-03  4.10888286E-02  1.82253821E-01  4.68284594E-01  4.45758173E-01
  1.00000000E+00  1.00000000E+00  5.68883320E-02  3.12940593E-01  7.60650165E-01
  1.00000000E+00  1.00000000E+00  3.34854848E-02  2.34721871E-01  8.13770285E-01
  1.00000000E+00  1.00000000E+00 -5.38935039E-03 -4.02347214E-02 -1.80081842E-01
 -4.68288577E-01 -4.46926172E-01  1.00000000E+00  1.00000000E+00  6.26302488E-02
  3.33311385E-01  7.41486383E-01  1.00000000E+00  1.00000000E+00
Coordinates of each shell                  R   N=          54
 -2.12165978E+00  1.78410314E+00  1.65421371E-06 -2.12165978E+00  1.78410314E+00
  1.65421371E-06 -2.12165978E+00  1.78410314E+00  1.65421371E-06 -9.88069895E-01
  2.77555756E-17 -8.28039643E-07 -9.88069895E-01  2.77555756E-17 -8.28039643E-07
 -9.88069895E-01  2.77555756E-17 -8.28039643E-07 -9.88069895E-01  2.77555756E-17
 -8.28039643E-07 -9.88069895E-01  2.77555756E-17 -8.28039643E-07 -9.88069895E-01
  2.77555756E-17 -8.28039643E-07 -2.12166105E+00 -1.78410247E+00  1.65421425E-06
 -2.12166105E+00 -1.78410247E+00  1.65421425E-06 -2.12166105E+00 -1.78410247E+00
  1.65421425E-06  1.27146752E+00 -8.39674166E-08  2.07476237E-07  1.27146752E+00
 -8.39674166E-08  2.07476237E-07  1.27146752E+00 -8.39674166E-08  2.07476237E-07
  1.27146752E+00 -8.39674166E-08  2.07476237E-07  1.27146752E+00 -8.39674166E-08
  2.07476237E-07  1.27146752E+00 -8.39674166E-08  2.07476237E-07
Num ILSW                                   I              100
ILSW                                       I   N=         100
           0           0           0           0           2           0
           0           0           0           0       20419          -1
           5           0           0           0           2           0
           0           0           0           0           1           0
           1           0           0           0           0           0
           0           0      100000           0          -1           0
           0           0           0           0           0           0
           0           0           0           1           0           0
           0 -2000000000           1           0           0           0
           0           0           4          52           0           0
           0           0          40           0           0           0
           0           0           0           4           0           1
           0           0           0           0           0           0
           0           0           0           0           0           0
           0           0           0           0           0           0
           0           0           0           0           0           0
           0           0           0           0
Num RLSW                                   I               52
RLSW                                       R   N=          52
  1.00000000E+00  1.00000000E+00  1.00000000E+00  8.10000000E-01  1.00000000E+00
  0.00000000E+00  3.30000000E-01  1.90000000E-01  0.00000000E+00  4.60000000E-01
  0.00000000E+00  3.30000000E-01  1.90000000E-01  0.00000000E+00  4.60000000E-01
  0.00000000E+00  0.00000000E+00  1.00000000E+00  0.00000000E+00  0.00000000E+00
  0.00000000E+00  0.00000000E+00  1.00000000E+00  0.00000000E+00  0.00000000E+00
  0.00000000E+00  0.00000000E+00  1.00000000E+00  0.00000000E+00  0.00000000E+00
  0.00000000E+00  0.00000000E+00  1.00000000E+00  0.00000000E+00  0.00000000E+00
  0.00000000E+00  0.00000000E+00  0.00000000E+00  1.00000000E+00  1.00000000E+00
  0.00000000E+00  1.00000000E+00  0.00000000E+00  0.00000000E+00  0.00000000E+00
  0.00000000E+00  0.00000000E+00  0.00000000E+00  0.00000000E+00  0.00000000E+00
  0.00000000E+00  0.00000000E+00
ECP-MxAtEC                                 I           250000
ECP-MaxLECP                                I               10
ECP-MaxAtL                                 I          2250000
ECP-MxTECP                                 I         11250000
ECP-LenNCZ                                 I                0
ECP-KFirst                                 I   N=          40
           0           0           0           0           0           0
           0           0           0           0           0           0
           0           0           0           0           0           0
           0           0           0           0           0           0
           0           0           0           0           0           0
           0           0           0           0           0           0
           0           0           0           0
ECP-KLast                                  I   N=          40
           0           0           0           0           0           0
           0           0           0           0           0           0
           0           0           0           0           0           0
           0           0           0           0           0           0
           0           0           0           0           0           0
           0           0           0           0           0           0
           0           0           0           0
ECP-LMax                                   I   N=           4
           0           0           0           0
ECP-LPSkip                                 I   N=           4
           1           1           1           1
ECP-RNFroz                                 R   N=           4
  0.00000000E+00  0.00000000E+00  0.00000000E+00  0.00000000E+00
ECP-NLP                                    I                0
ECP-CLP1                                   R      0.000000000000000E+00
ECP-CLP2                                   R      0.000000000000000E+00
ECP-ZLP                                    R      0.000000000000000E+00
MxBond                                     I                3
NBond                                      I   N=           4
           1           3           1           1
IBond                                      I   N=          12
           2           0           0           1           3           4
           2           0           0           2           0           0
RBond                                      R   N=          12
  1.00000000E+00  0.00000000E+00  0.00000000E+00  1.00000000E+00  1.00000000E+00
  2.00000000E+00  1.00000000E+00  0.00000000E+00  0.00000000E+00  2.00000000E+00
  0.00000000E+00  0.00000000E+00
Virial Ratio                               R      2.008298658382546E+00
SCF Energy                                 R     -1.143645305076591E+02
Total Energy                               R     -1.143645305076591E+02
RMS Force                                  R      1.922075868551454E-06
RMS Density                                R      1.404161651253748E-09
NImag                                      I                0
Job Status                                 I                1
Nuclear derivative order                   I                2
External E-field                           R   N=          35
  0.00000000E+00  0.00000000E+00  0.00000000E+00  0.00000000E+00  0.00000000E+00
  0.00000000E+00  0.00000000E+00  0.00000000E+00  0.00000000E+00  0.00000000E+00
  0.00000000E+00  0.00000000E+00  0.00000000E+00  0.00000000E+00  0.00000000E+00
  0.00000000E+00  0.00000000E+00  0.00000000E+00  0.00000000E+00  0.00000000E+00
  0.00000000E+00  0.00000000E+00  0.00000000E+00  0.00000000E+00  0.00000000E+00
  0.00000000E+00  0.00000000E+00  0.00000000E+00  0.00000000E+00  0.00000000E+00
  0.00000000E+00  0.00000000E+00  0.00000000E+00  0.00000000E+00  0.00000000E+00
IOpCl                                      I                0
IROHF                                      I                0
Alpha Orbital Energies                     R   N=          38
 -1.92251723E+01 -1.03624729E+01 -1.13404536E+00 -7.00142896E-01 -5.67265661E-01
 -5.20749576E-01 -4.71980316E-01 -3.33149161E-01  1.42420006E-02  1.14150963E-01
  1.80311270E-01  2.46684765E-01  4.97862408E-01  5.08398766E-01  6.03364443E-01
  6.49389286E-01  6.69173688E-01  7.33204799E-01  9.47255532E-01  1.05314857E+00
  1.16297888E+00  1.23270909E+00  1.35086537E+00  1.50398952E+00  1.61599503E+00
  1.68206249E+00  1.87725675E+00  1.91974994E+00  1.98293483E+00  2.13800919E+00
  2.56331472E+00  2.64754534E+00  2.66240742E+00  2.76877500E+00  2.97208474E+00
  3.21234763E+00  3.48798211E+00  3.64452803E+00
Alpha MO coefficients                      R   N=        1444
  6.09056651E-04  4.47974463E-04  8.89132976E-04  1.58694773E-04  6.84377020E-10
 -3.28043802E-04 -8.94885242E-04 -1.12260801E-02  1.28442805E-03 -1.14004151E-10
 -9.55818706E-11 -7.25956820E-03 -2.52907393E-09 -5.37590553E-09 -6.63768580E-04
  1.78478903E-09 -8.64430465E-16  2.30273693E-03 -7.20357552E-11  6.09054577E-04
  4.47971186E-04  8.89133339E-04 -1.58695931E-04  6.84380252E-10  9.88751294E-01
 -4.13464421E-02  2.72576341E-02  3.11887755E-03 -1.21761597E-10  1.53317341E-09
 -5.78459700E-03  9.20608840E-10 -2.05378061E-09  2.98482142E-04 -6.04945718E-10
 -6.76235082E-17 -5.53745037E-04 -3.89843714E-11 -4.22569652E-03  6.46086935E-03
 -1.96066648E-03  2.38494837E-03  4.10117159E-09  9.88218273E-01  4.85991959E-02
 -1.86871542E-02  8.98186944E-04  5.11109415E-10  7.10608156E-09  6.89470000E-03
  9.62173566E-10 -4.48662638E-09 -3.12189078E-03 -2.56816700E-09  8.14345177E-16
  5.21304713E-04  1.24597874E-09 -4.22569569E-03  6.46087132E-03 -1.96066835E-03
 -2.38494802E-03  4.10117296E-09  1.91746123E-04  2.17211320E-04 -9.34170689E-03
  9.93739686E-04 -6.44383043E-11  4.36232720E-10  7.30587702E-03 -1.19698155E-09
  5.52290857E-09  5.69026980E-04 -1.65425403E-09  3.34905167E-16 -5.82008747E-04
  4.63887785E-10  3.10806609E-02  5.14036452E-03  3.49570381E-03 -6.44602523E-03
 -7.52826397E-09 -1.50585502E-01  2.90469831E-01  4.12964423E-02  2.01571224E-01
 -3.71186486E-09  9.49981806E-08  2.42807612E-02 -5.27516187E-10 -3.77717205E-09
 -1.27216541E-02  2.36242609E-08  2.99662685E-15  2.59792053E-02 -2.62414547E-09
  3.10806425E-02  5.14036686E-03  3.49570770E-03  6.44602024E-03 -7.52826084E-09
  2.56620803E-01  5.10248614E-01  2.47130629E-01 -1.72688739E-01  6.95123528E-09
 -7.71106516E-08 -2.46720627E-02  1.14598244E-09 -4.69287669E-09 -4.95761217E-03
  1.21810396E-08  2.09849399E-15  1.41031384E-02 -5.56399337E-10  2.33215840E-01
  4.87422307E-02  7.66672229E-03 -1.88149461E-02 -1.86192089E-08 -2.07415675E-01
  4.34070499E-01  1.46442205E-01 -2.19489964E-01  4.62024749E-08  2.30328666E-07
 -8.18380889E-02 -4.25830317E-09  1.18449717E-08 -1.32205912E-03 -1.24622546E-08
  3.99233158E-15 -1.15112911E-02  4.93202507E-09  2.33215856E-01  4.87422221E-02
  7.66673689E-03  1.88149421E-02 -1.86192081E-08 -1.15358143E-01 -2.44965772E-01
 -1.78908490E-01 -9.83803206E-02  2.63343867E-08  8.08763654E-08 -6.69010675E-02
  1.62826746E-08  4.09868957E-08 -5.13233849E-03 -6.36577632E-09 -9.35318530E-16
  6.31514574E-03 -2.65500680E-09  2.43022628E-01  7.86897198E-02  9.30860996E-03
 -7.90599385E-03 -2.28445915E-08  1.06157253E-08 -2.10470954E-08 -5.25614201E-08
  1.13542138E-07  4.34262923E-01 -3.77811551E-14  1.77659932E-08  1.43828603E-01
 -3.72982787E-14 -1.68571076E-09  4.17145612E-15  4.03924186E-08 -8.81167247E-09
  4.84612570E-03 -2.43022639E-01 -7.86897272E-02 -9.30861895E-03 -7.90599225E-03
  2.28446184E-08 -2.52392396E-08 -5.28938925E-08 -5.25696734E-08 -6.59973942E-08
  3.04448028E-01 -6.44475869E-14 -3.49065972E-08  1.71899418E-01 -3.01351173E-14
 -2.45409928E-09  5.47330517E-15 -7.73720210E-09  1.63692101E-09 -2.02909471E-02
  1.02831792E-01  4.05822014E-02 -3.12145043E-03 -6.97167585E-03 -1.17351370E-09
  4.04102048E-02 -1.15875091E-01  5.59002183E-02 -3.64437666E-01  1.08082415E-07
  3.49999589E-07 -5.43365736E-02  4.89726681E-08  1.95862018E-07  4.18134159E-03
  9.83642145E-09  6.25665342E-15 -1.80716963E-02  8.90643504E-09  1.02831786E-01
  4.05822056E-02 -3.12144814E-03  6.97167737E-03 -1.17351242E-09  1.10884859E-01
  2.20130130E-01  3.21644221E-01  5.17965924E-01  7.47433718E-08  6.79497810E-07
  2.65718244E-01  4.25421960E-08  3.83908265E-07  1.17455848E-02 -4.69969469E-08
 -1.05213083E-15 -1.80917528E-02 -4.46029517E-09 -7.64925019E-08 -7.98076269E-08
  1.07981993E-08  1.41585086E-09  6.87459360E-03  1.25267515E-07 -2.67264187E-07
 -2.68525465E-07  4.31086589E-07 -7.98456741E-14  3.71126085E-01  8.27997491E-08
 -1.11112844E-13  2.08003616E-01  2.04063174E-08  3.55496602E-02 -7.47345017E-10
  6.50796614E-09 -1.92352786E-14 -7.64925736E-08 -7.98077781E-08  1.07981974E-08
 -1.41584427E-09  6.87459316E-03 -5.38306819E-08 -8.72657766E-08 -2.62496250E-07
 -7.69770104E-07 -9.69876845E-14  5.02964304E-01 -4.10409088E-07 -4.17412823E-14
  3.13237597E-01 -3.34255232E-08 -2.79204329E-02  6.49686346E-10  2.93537024E-08
  3.38968075E-15 -2.63220722E-01 -2.23465502E-01 -4.42925587E-03  4.92697547E-03
  2.07020435E-08  6.43641403E-09  2.38987648E-09 -4.12870857E-08  2.20826896E-08
 -1.59825588E-01  6.24236110E-14  6.79797764E-08  3.36919765E-02  8.53919372E-15
 -3.21167881E-09 -7.41694066E-15 -1.29098146E-08  1.87780574E-08  5.20077957E-02
  2.63220678E-01  2.23465531E-01  4.42926383E-03  4.92696185E-03 -2.07020709E-08
  6.68995886E-09  2.32575664E-08 -3.52669629E-08 -4.73333734E-08  5.69972317E-01
 -1.51248092E-14 -1.25433303E-08  4.13413152E-01  1.91173568E-14  5.79252031E-10
 -2.17328087E-15 -1.08256369E-08  7.45129527E-10 -1.38457099E-02  5.91221233E-07
  1.57051074E-06 -1.70069699E-09 -2.93795902E-08  2.48445974E-02  3.16425229E-07
 -5.64765198E-07 -3.00914470E-06  3.59939999E-07  1.40232191E-13  4.87099933E-01
  8.29974904E-07  1.88010526E-13  5.94141174E-01 -4.81779324E-08 -2.97357339E-02
  1.72389780E-09  1.23089190E-08  8.84671365E-16  5.91221442E-07  1.57051153E-06
 -1.70066447E-09  2.93795999E-08  2.48446058E-02  4.52669036E-08  1.32949197E-07
 -5.58064568E-08 -2.33282909E-08 -1.79872950E-13 -4.34117772E-01  7.85792148E-08
 -2.37161225E-13 -4.75435040E-01 -8.10977969E-09 -3.14622082E-03  4.10285829E-10
  3.01803303E-10 -2.09317457E-16 -8.02415599E-02 -1.47714095E+00  2.48466882E-03
 -5.07309687E-03  3.24870134E-08 -1.35685159E-01  2.74048819E-01  1.95034632E+00
 -2.21942591E-01 -3.53733036E-08  9.43573435E-07 -6.64606426E-01  2.66722554E-08
  2.38419866E-06  8.71873198E-03 -4.34456975E-08 -1.45731777E-14 -5.46777495E-04
  5.63880740E-10 -8.02415584E-02 -1.47714142E+00  2.48467389E-03  5.07309903E-03
  3.24867198E-08 -4.75134232E-03 -1.93978194E-02  7.11338895E-02  6.35476027E-02
  5.69219046E-08 -5.59266863E-07  2.49379367E-02  8.30884424E-08 -9.48890954E-07
  1.26167380E-03 -1.72065040E-08  1.34066967E-15  5.02359767E-03  2.34724119E-10
 -1.93523614E-02  1.68511001E+00 -2.19100015E-03  1.70499520E-03  2.80633803E-08
 -7.11695130E-09  9.52681388E-09  8.51687209E-09  6.06308324E-09 -4.38814926E-01
  1.43875842E-13  3.07975188E-07 -1.22897979E+00  7.60168595E-14  9.57686137E-09
  8.67802829E-15  8.08707276E-09 -1.15993508E-08  3.29254943E-03  1.93523051E-02
 -1.68510929E+00  2.19103128E-03  1.70498109E-03 -2.80629961E-08 -5.16348737E-08
 -1.00783779E-07 -4.77660359E-07  7.89407115E-08  1.33983442E-01 -1.16211966E-13
  1.97465925E-07  3.00903811E-01 -6.53871954E-14  2.12365983E-09 -7.59351577E-15
  1.93623220E-08 -9.14354998E-09  1.01138083E-02  3.33221881E-02  2.92227961E-02
 -1.24477448E-02 -1.35691359E-02 -3.57609031E-08  2.75743099E-02  1.69785178E-02
 -1.78663444E+00 -8.77857392E-02 -1.62399526E-07 -1.33230625E-07 -1.69422676E+00
 -4.50945983E-07 -8.76587697E-07 -9.40986806E-03  7.24619227E-09 -9.81587217E-15
  2.00758510E-02  2.15135079E-09  3.33224680E-02  2.92205760E-02 -1.24477679E-02
  1.35691577E-02 -3.57609475E-08  1.07627528E-01  1.35016183E-01  1.87280708E+00
 -1.39705515E-01 -3.29117386E-09 -1.02886693E-08 -6.25344430E-01  8.74376858E-08
 -2.49878422E-07 -1.10897522E-02  2.11517707E-08  9.24431782E-15  2.01407173E-02
  2.41303347E-09 -7.40212969E-01 -4.56814233E-01 -3.79399508E-02 -3.54465542E-02
  2.81294328E-07  9.55108330E-02 -9.57808294E-01  2.29170179E+00  5.86445768E-02
 -8.13908517E-08  7.26027760E-06 -9.87431259E-01  5.47813793E-07 -5.82266758E-06
  8.24067352E-02  1.95249403E-07 -2.24372608E-14  6.21963203E-02 -4.23753461E-08
 -7.40213044E-01 -4.56813809E-01 -3.79399240E-02  3.54465786E-02  2.81294106E-07
 -1.93224944E-02 -8.37842006E-02  1.40327494E-01 -4.40498015E-02  7.96742290E-08
 -4.30919983E-07 -4.82742574E-02 -1.06837359E-07  2.17636514E-07  1.34023247E-02
 -2.76221716E-07 -1.83145684E-16 -2.69372410E-03  7.97506582E-09 -5.92285231E-06
 -2.68509492E-06 -3.31156390E-07 -2.54518589E-07 -1.89798795E-02  2.15596146E-07
 -4.40273317E-06  1.40589601E-05  2.34428123E-07 -9.00294561E-13 -9.95465672E-01
 -6.84532371E-06  4.91184713E-12  1.12114690E+00  6.58047220E-07 -2.11688263E-02
  1.67669568E-09  4.79960396E-07 -3.56130025E-13 -5.92285281E-06 -2.68509081E-06
 -3.31156137E-07  2.54518858E-07 -1.89798616E-02 -1.65582549E-07 -6.72492521E-07
  9.49096522E-07 -1.28110560E-07  5.74762904E-13 -9.03095070E-03 -1.01258714E-07
 -9.74180114E-13 -1.16613301E-01  1.20222554E-07  3.42488030E-02 -1.42193344E-09
 -2.04290906E-08  7.00155877E-14 -7.77189105E-01 -3.37915263E-01  6.14723806E-02
  3.26742040E-02 -2.13198638E-07  1.75362282E-07 -9.80215187E-07  2.52160340E-06
 -1.14316322E-07 -1.59768737E-01 -7.75364502E-13  9.31702772E-07  1.74270353E+00
  1.33230469E-12 -4.69779010E-08 -1.67694721E-13 -4.07413208E-07  8.87228950E-08
  7.96586027E-02  7.77189688E-01  3.37913582E-01 -6.14724099E-02  3.26741636E-02
  2.13198595E-07 -1.77690138E-08  1.82044796E-09 -1.02623108E-06 -2.78965816E-07
 -3.68095531E-01  3.07650678E-13  1.91085572E-07 -2.64110025E-01 -2.40011055E-14
  3.15172234E-08  1.57721946E-15 -4.37018890E-08 -3.79269405E-08 -1.22392255E-02
  5.56482555E-01 -1.53293502E+00 -5.29852976E-02  1.03264057E-01  4.92826711E-08
  2.90944431E-01 -1.67690331E+00  3.19291488E+00  2.01471382E-01  1.93749768E-06
 -1.66763967E-06 -6.68471461E-01 -4.58643039E-06  2.57091546E-06 -1.01422921E-01
 -1.60166044E-07 -1.22941507E-13 -2.24229118E-02  2.60481057E-07  5.56483426E-01
 -1.53294198E+00 -5.29856591E-02 -1.03264442E-01  4.92825447E-08  3.36331389E-02
  1.25013196E-01 -1.63430504E-01 -1.82866705E-01  2.04469316E-07  3.14819246E-08
 -1.06744727E-01  4.54726175E-07 -2.46247412E-07  1.55448258E-02  5.21605796E-08
  3.08208893E-14 -2.04046271E-02 -6.24326441E-08  4.23103568E-01 -1.59421745E+00
 -9.45423845E-02  9.69009356E-02  1.64400243E-07  5.18428619E-07 -3.05818626E-06
  6.85475921E-06  8.37760407E-07 -9.49897155E-01 -2.82409890E-12 -1.36686001E-06
  1.86278497E+00  5.01823448E-12 -2.01621971E-07 -3.34887236E-13  2.25719842E-07
 -2.16053851E-07 -1.38121450E-01 -4.23101117E-01  1.59421052E+00  9.45422352E-02
  9.69003254E-02 -1.64400354E-07  3.38213424E-08  1.62054855E-07 -3.82041122E-07
 -1.32997060E-07  2.03967891E-02  2.03353491E-13 -3.90444406E-08 -1.49488559E-01
 -3.84552730E-13  8.26276067E-09  1.31513730E-13  2.75668654E-10  6.53341884E-09
  3.80823878E-02  3.53466560E-02 -4.88409074E-01  2.78519254E-02  8.11007901E-02
  1.58430782E-07 -1.08022717E-01  5.10522892E-01  6.20036784E-01  1.08439435E+00
  3.46008308E-07  2.21902318E-07 -9.70257508E-01 -5.21872263E-07  4.67175795E-07
  5.58773085E-02 -1.58903769E-07 -2.88769506E-13 -1.36825178E-01  1.41280089E-07
  3.53475338E-02 -4.88410895E-01  2.78516867E-02 -8.11009410E-02  1.58431077E-07
 -9.87846254E-02 -3.16824981E-01  1.81423650E-01  3.87062381E-01 -1.29892847E-07
  8.77932938E-08  4.90954392E-01  3.58605890E-08  1.93953270E-07 -4.64024750E-02
  8.06397020E-08 -1.20982516E-14  8.08626589E-02 -2.95137538E-08  2.06139676E-02
  4.88475665E-02 -8.96474963E-02 -3.22710335E-02 -6.63138619E-08 -2.98539072E-02
  6.29468467E-01  1.01395961E-01  1.47236639E-01 -5.83162958E-08  1.53545070E-07
  2.86836191E-01  7.47874315E-08  5.67458855E-08 -1.04125814E-01  9.85882764E-08
  1.18447609E-13  1.65832709E-01 -4.87616332E-08  2.06137535E-02  4.88478516E-02
 -8.96474071E-02  3.22710710E-02 -6.63139570E-08 -1.34068252E-01 -5.50198562E-01
 -6.17982225E-02 -7.40122519E-01  2.20335163E-07 -6.82715303E-08  1.33155619E+00
 -2.39144916E-07  3.40235066E-07 -4.03004172E-04 -1.77460171E-09  6.78384797E-15
 -1.60956554E-03  9.63412652E-09  7.81762048E-08  4.67202871E-07  2.58643986E-07
  2.30176432E-07 -8.32666197E-02 -3.76978116E-09  3.59897408E-07 -9.76211401E-07
 -1.47351110E-07  1.47485077E-14  3.51775541E-02  4.27704490E-07 -1.85088818E-12
 -3.93640409E-01 -2.98619162E-07 -2.13090369E-02  3.89335570E-08 -4.64358555E-08
  3.93213267E-16  7.81755174E-08  4.67201836E-07  2.58643395E-07 -2.30176703E-07
 -8.32668011E-02  2.52512750E-09  5.13110932E-09  1.38730352E-08  7.63813638E-08
 -1.84330045E-12 -9.53172609E-01 -1.21109439E-07  2.59149705E-12  1.21233108E+00
 -1.26383678E-09  2.20529282E-02  1.70233026E-09 -3.27258444E-08  4.47234991E-14
  2.28560677E-01  5.76970099E-01 -4.20402477E-02 -5.17873408E-02  3.13428995E-06
  2.75576093E-08 -3.12567561E-08  5.39836474E-07  9.47947177E-08  1.12321940E-01
 -5.56305940E-13 -4.96752190E-07 -1.44045814E+00  2.05511071E-12 -5.25698483E-08
  9.92634726E-13  2.80544675E-06  3.11903001E-08 -1.85382350E-01 -2.28560803E-01
 -5.76970446E-01  4.20403354E-02 -5.17873691E-02 -3.13428898E-06  4.97026111E-08
  2.94726170E-07 -3.19113365E-07 -2.39801443E-07 -8.70921044E-01  2.52546423E-12
  4.53590764E-07  1.50487892E+00 -3.93813785E-12 -9.59530310E-09 -1.55799516E-13
  2.88717149E-07  7.91540751E-09  6.62747450E-02 -1.37724806E-06 -4.04086795E-06
  1.67586215E-06  5.56813939E-07  5.19845929E-01 -1.51729985E-13 -1.74358136E-12
 -1.17765931E-11 -1.90882962E-12 -9.20838165E-07 -4.50819646E-08 -8.80750832E-13
  9.53771209E-06  9.58663234E-08  8.55496933E-13  1.21565061E-07  4.53999216E-01
 -5.33585012E-13  2.19400682E-06  1.37724909E-06  4.04087212E-06 -1.67586241E-06
  5.56815221E-07 -5.19845864E-01 -1.39829774E-12 -8.99388866E-12  1.66591697E-11
  2.16792652E-12  4.75239808E-06  1.27731874E-07 -7.95818433E-12 -9.36709420E-06
 -2.27919007E-07  1.07731802E-13 -1.64115701E-08  3.92499923E-02 -2.03690897E-13
 -6.64251337E-07  9.93097215E-02  1.21583802E-01 -2.55369869E-02 -5.48675051E-02
 -5.78518351E-07  3.41491186E-02 -7.15683858E-01 -2.18835481E+00 -3.35922262E-01
  3.33648470E-08 -1.04041480E-07 -1.30569947E+00 -9.69467227E-07 -6.63888653E-07
  6.57701831E-02 -5.86021485E-08 -1.84475755E-12 -2.52407728E-01 -7.62301312E-08
  9.93094013E-02  1.21582685E-01 -2.55372240E-02  5.48675561E-02 -5.78514049E-07
 -2.77889749E-01 -1.90690640E+00  4.20286042E+00  1.88148805E-01 -1.82738243E-07
  7.60173552E-08 -1.56910228E+00  5.71145816E-07 -7.75681179E-07  2.31935969E-02
 -7.34416213E-08 -1.18629713E-13 -5.50071080E-02  5.47341813E-08 -1.63138095E-06