Gaussian, Inc.  All Rights Reserved.
  Entering Link 1 = l1.exe 
                           Input orientation:
 ---------------------------------------------------------------------
 Center     Atomic      Atomic             Coordinates (Angstroms)
 Number     Number       Type             X          Y          Z
 ---------------------------------------------------------------------
     1         8           0         -0.00         -1.31          0.13
     2         1           0         -0.00         -0.54          0.71
     3         1           0         -0.00         -0.88         -0.77
     4         6           0          0.00          0.13         -2.37
     5         7           0          0.00          0.82         -3.33
 ---------------------------------------------------------------------
                        Standard orientation:
 ---------------------------------------------------------------------
 Center     Atomic      Atomic             Coordinates (Angstroms)
 Number     Number       Type             X          Y          Z
 ---------------------------------------------------------------------
     1         8           0         -0.00         -1.31          0.13
     2         1           0         -0.00         -0.54          0.71
     3         1           0         -0.00         -0.88         -0.77
     4         6           0          0.00          0.13         -2.37
     5         7           0          0.00          0.82         -3.33
 ---------------------------------------------------------------------
 Harmonic frequencies (cm**-1), IR intensities (KM/Mole), Raman scattering 
 activities (A**4/AMU), depolarization ratios for plane and unpolarized 
 incident light, reduced masses (AMU), force constants (mDyne/A),
 and normal coordinates:

 Frequencies --      1.0000                 2.0000                 3.0000
 Red. masses --      8.1082                 7.2517                 7.9634
 Frc consts  --      2.5409                 7.3894                39.3988
 IR Inten    --    100.4396               114.9375               219.5344
  Atom  AN      X      Y      Z        X      Y      Z        X      Y      Z
     1   8     0.00   0.14   0.03     0.18  -0.00   0.00     0.00   0.24  -0.45
     2   1    -0.00   0.42  -0.34    -0.66   0.00  -0.00     0.00   0.17  -0.35
     3   1    -0.00  -0.28  -0.16    -0.18   0.00  -0.00     0.00   0.38  -0.44
     4   6    -0.00  -0.55  -0.33    -0.60   0.00  -0.00    -0.00  -0.11   0.35
     5   7     0.00   0.30   0.28     0.37  -0.00   0.00    -0.00  -0.22   0.27

 Frequencies --      4.0000                 5.0000                 6.0000
 Red. masses --      1.0768                 1.0557                 1.0755
 Frc consts  --     59.8084                55.3291                79.5053
 IR Inten    --    459.9334               884.3829              1697.2684
  Atom  AN      X      Y      Z        X      Y      Z        X      Y      Z
     1   8    -0.00  -0.02   0.03     0.04  -0.00   0.00    -0.00  -0.07   0.01
     2   1     0.00   0.48  -0.64    -0.07   0.00  -0.00     0.00   0.36  -0.46
     3   1    -0.00  -0.56  -0.21    -1.00   0.00  -0.00     0.00   0.75   0.31
     4   6     0.00   0.05   0.04     0.04  -0.00   0.00    -0.00  -0.01  -0.01
     5   7    -0.00  -0.01  -0.01    -0.01   0.00  -0.00     0.00   0.00   0.00

 Frequencies --      7.0000                 8.0000
 Red. masses --      1.0661                 1.0648
 Frc consts  --   1481.6830                25.2245
 IR Inten    --   3151.7789              3919.2781
  Atom  AN      X      Y      Z        X      Y      Z
     1   8    -0.00  -0.03   0.06     0.00   0.05   0.04
     2   1     0.00   0.03   0.07    -0.00  -0.78  -0.62
     3   1     0.00   0.36  -0.93     0.00   0.05  -0.03
     4   6     0.00   0.00  -0.00    -0.00  -0.00  -0.00
     5   7     0.00   0.00  -0.00     0.00   0.00  -0.00

------------------- 
- Thermochemistry - 
------------------- 

Normal termination of Gaussian 09 
